 Gaussian 16, Revision A.03,
 Gaussian 16:  ES64L-G16RevA.03 25-Dec-2016

 -------------------------------------------------------
 #P M062X/6-31+G(d,p) Opt Freq SCRF=(SMD, Solvent=Water)
 -------------------------------------------------------

 ---------------
 2-2_neutral_pka
 ---------------
 Symbolic Z-matrix:
 Charge =  0 Multiplicity = 1

 SCF Done:  E(RM062X) =  -3866.07184685     A.U. after   15 cycles
 SCF Done:  E(RM062X) =  -3866.11591690     A.U. after   16 cycles
 SCF Done:  E(RM062X) =  -3866.12194786     A.U. after   17 cycles
 SCF Done:  E(RM062X) =  -3866.14667310     A.U. after   17 cycles
 SCF Done:  E(RM062X) =  -3866.15148038     A.U. after   16 cycles
 SCF Done:  E(RM062X) =  -3866.15334281     A.U. after   16 cycles
 SCF Done:  E(RM062X) =  -3866.15350335     A.U. after   16 cycles
 SCF Done:  E(RM062X) =  -3866.15381262     A.U. after   16 cycles
 SCF Done:  E(RM062X) =  -3866.15403325     A.U. after   15 cycles
 SCF Done:  E(RM062X) =  -3866.15412068     A.U. after   16 cycles
 SCF Done:  E(RM062X) =  -3866.15421923     A.U. after   15 cycles
 SCF Done:  E(RM062X) =  -3866.15421987     A.U. after   12 cycles
 SCF Done:  E(RM062X) =  -3866.15421992     A.U. after   10 cycles
 SCF Done:  E(RM062X) =  -3866.15421957     A.U. after   11 cycles
 SCF Done:  E(RM062X) =  -3866.15422000     A.U. after   10 cycles
 SCF Done:  E(RM062X) =  -3866.15421980     A.U. after   10 cycles
 SCF Done:  E(RM062X) =  -3866.15421989     A.U. after   10 cycles
 SCF Done:  E(RM062X) =  -3866.15421979     A.U. after    8 cycles
 SCF Done:  E(RM062X) =  -3866.15421990     A.U. after    8 cycles
 Optimization completed.
    -- Stationary point found.
 Normal termination of Gaussian 16 at Wed Jul 26 18:09:03 2023.

 ----------------------------------------------------------------------
 #P Geom=AllCheck Guess=TCheck SCRF=Check GenChk RM062X/6-31+G(d,p) Fre
 q
 ----------------------------------------------------------------------

 Structure from the checkpoint file:  "/home/ch/tchem07/g16/2-2_neutral_pka.chk"
 ---------------
 2-2_neutral_pka
 ---------------
 Charge =  0 Multiplicity = 1

                         Standard orientation:
 ---------------------------------------------------------------------
 Center     Atomic      Atomic             Coordinates (Angstroms)
 Number     Number       Type             X           Y           Z
 ---------------------------------------------------------------------
      1         35           0        5.522016   -1.119644   -0.026037
      2          6           0        3.838581   -0.269706    0.022110
      3          6           0        3.324886    0.270106   -1.155098
      4          6           0        2.081203    0.889367   -1.123354
      5          6           0        1.398355    0.947407    0.088780
      6         16           0       -0.179736    1.728029    0.128379
      7          8           0       -0.292743    2.715678   -0.937607
      8          8           0       -1.098738    0.462100   -0.250487
      9          6           0       -2.471732    0.746048   -0.591900
     10          6           0       -3.165663   -0.555991   -0.980257
     11          8           0       -2.694762   -1.633672   -0.178692
     12          6           0       -3.828888   -2.467882    0.070135
     13          6           0       -4.946954   -1.482865    0.392669
     14          7           0       -6.273096   -2.042942    0.157361
     15          6           0       -4.627626   -0.307199   -0.543248
     16          8           0       -4.647004    0.965090    0.119170
     17          6           0       -3.327370    1.243295    0.574556
     18          8           0       -0.499784    2.144992    1.487922
     19          6           0        1.907891    0.412113    1.268033
     20          6           0        3.151620   -0.208478    1.231782
     21          1           0        3.880247    0.212332   -2.084192
     22          1           0        1.659506    1.321469   -2.024972
     23          1           0       -2.498597    1.448534   -1.429180
     24          1           0       -3.061419   -0.798915   -2.041384
     25          1           0       -3.577233   -3.143520    0.888994
     26          1           0       -4.077248   -3.049220   -0.828933
     27          1           0       -4.804988   -1.124292    1.422298
     28          1           0       -6.428439   -2.805426    0.814070
     29          1           0       -6.971498   -1.337007    0.381662
     30          1           0       -5.331097   -0.255119   -1.376422
     31          1           0       -3.252932    2.314501    0.765175
     32          1           0       -3.087495    0.680651    1.487399
     33          1           0        1.353579    0.478779    2.198183
     34          1           0        3.572956   -0.633897    2.135332
 ---------------------------------------------------------------------

 SCF Done:  E(RM062X) =  -3866.15421990     A.U. after    2 cycles

 The electronic state is 1-A.
 Alpha  occ. eigenvalues -- -485.49707 -90.20335 -62.77755 -57.30829 -57.30563
 Alpha  occ. eigenvalues --  -57.30529 -19.72148 -19.67464 -19.67388 -19.66668
 Alpha  occ. eigenvalues --  -19.66470 -14.74809 -10.63674 -10.62926 -10.61279
 Alpha  occ. eigenvalues --  -10.61136 -10.60447 -10.60231 -10.59283 -10.59280
 Alpha  occ. eigenvalues --  -10.59233 -10.58491 -10.58480 -10.57654  -8.94763
 Alpha  occ. eigenvalues --   -8.51176  -6.90139  -6.89127  -6.89086  -6.43447
 Alpha  occ. eigenvalues --   -6.43317  -6.43206  -2.92991  -2.92636  -2.92604
 Alpha  occ. eigenvalues --   -2.91704  -2.91703  -1.30025  -1.20216  -1.18287
 Alpha  occ. eigenvalues --   -1.16831  -1.15888  -1.01029  -0.99715  -0.93658
 Alpha  occ. eigenvalues --   -0.90297  -0.88058  -0.86081  -0.85202  -0.81965
 Alpha  occ. eigenvalues --   -0.77947  -0.72916  -0.72066  -0.69885  -0.67953
 Alpha  occ. eigenvalues --   -0.66837  -0.64593  -0.62532  -0.62150  -0.59091
 Alpha  occ. eigenvalues --   -0.57469  -0.57227  -0.56160  -0.55479  -0.55005
 Alpha  occ. eigenvalues --   -0.54670  -0.53675  -0.52026  -0.51920  -0.51051
 Alpha  occ. eigenvalues --   -0.50758  -0.48863  -0.48065  -0.46555  -0.45756
 Alpha  occ. eigenvalues --   -0.45249  -0.44243  -0.44094  -0.43203  -0.42610
 Alpha  occ. eigenvalues --   -0.41845  -0.41289  -0.41121  -0.39603  -0.39413
 Alpha  occ. eigenvalues --   -0.38039  -0.36078  -0.34726  -0.33858  -0.33664
 Alpha  occ. eigenvalues --   -0.31847  -0.31742
 Alpha virt. eigenvalues --   -0.03197  -0.00765   0.00623   0.01320   0.02271
 Alpha virt. eigenvalues --    0.02496   0.02878   0.02960   0.03590   0.04208
 Alpha virt. eigenvalues --    0.04625   0.04952   0.05334   0.05417   0.05885

 Mulliken charges:
               1
     1  Br   0.053428
     2  C    0.150873
     3  C   -0.202349
     4  C    0.446105
     5  C   -1.243988
     6  S    1.072350
     7  O   -0.550688
     8  O   -0.447737
     9  C   -0.364497
    10  C    0.176948
    11  O   -0.431665
    12  C   -0.089082
    13  C    0.052499
    14  N   -0.743111
    15  C   -0.244118
    16  O   -0.412915
    17  C    0.009910
    18  O   -0.545369
    19  C    0.319764
    20  C   -0.250462
    21  H    0.227122
    22  H    0.240361
    23  H    0.239001
    24  H    0.209260
    25  H    0.194131
    26  H    0.177731
    27  H    0.187684
    28  H    0.345582
    29  H    0.344625
    30  H    0.205814
    31  H    0.206264
    32  H    0.199010
    33  H    0.240576
    34  H    0.226944
 Sum of Mulliken charges =  -0.00000

 Dipole moment (field-independent basis, Debye):
    X=             -0.3397    Y=             -4.3650    Z=             -0.1613  Tot=              4.3812
 Quadrupole moment (field-independent basis, Debye-Ang):
   XX=           -120.9259   YY=           -150.2505   ZZ=           -126.8931
   XY=             11.4161   XZ=             -6.7335   YZ=             -8.5254

  Exact polarizability: 307.315 -34.395 232.861  -2.779  -9.255 260.024
 Approx polarizability: 255.585 -30.709 206.344  -3.295  -9.844 236.594

                      1                      2                      3
                      A                      A                      A
 Frequencies --     16.2314                23.5266                29.3590
 Red. masses --      7.0324                 4.0221                 6.9503
 Frc consts  --      0.0011                 0.0013                 0.0035
 IR Inten    --      0.6945                 0.0937                 0.4672

                      4                      5                      6
                      A                      A                      A
 Frequencies --     36.9724                68.8177                89.6260
 Red. masses --      5.2481                 7.3860                 6.3809
 Frc consts  --      0.0042                 0.0206                 0.0302
 IR Inten    --      1.3441                 1.5370                 5.1427

                      7                      8                      9
                      A                      A                      A
 Frequencies --    141.7063               149.3059               171.1347
 Red. masses --     10.6656                 6.1966                 6.0521
 Frc consts  --      0.1262                 0.0814                 0.1044
 IR Inten    --      5.8680                 1.9689                 2.6299

                     10                     11                     12
                      A                      A                      A
 Frequencies --    189.8677               210.7255               226.8492
 Red. masses --      2.4286                 1.4784                 9.2281
 Frc consts  --      0.0516                 0.0387                 0.2798
 IR Inten    --     15.8974                58.9393                 1.1599

                     13                     14                     15
                      A                      A                      A
 Frequencies --    233.3739               264.0522               305.9316
 Red. masses --      3.8469                 7.4641                 3.4234
 Frc consts  --      0.1234                 0.3066                 0.1888
 IR Inten    --     22.5680                 0.4112                13.7055

                     16                     17                     18
                      A                      A                      A
 Frequencies --    321.7685               353.7160               374.6293
 Red. masses --      4.4635                 5.1660                 5.0255
 Frc consts  --      0.2723                 0.3808                 0.4156
 IR Inten    --     17.2740                20.2063                16.8320

                     19                     20                     21
                      A                      A                      A
 Frequencies --    404.1198               421.7098               424.6318
 Red. masses --      3.3491                 3.0076                 7.0667
 Frc consts  --      0.3223                 0.3151                 0.7507
 IR Inten    --     23.9175                 5.3685                53.4041

                     22                     23                     24
                      A                      A                      A
 Frequencies --    483.0121               494.3813               496.1662
 Red. masses --      4.5474                 7.6885                 8.1272
 Frc consts  --      0.6251                 1.1072                 1.1788
 IR Inten    --     10.8837                35.1610                28.2977

                     25                     26                     27
                      A                      A                      A
 Frequencies --    517.7588               553.9146               582.4894
 Red. masses --      4.6237                 3.5944                 4.9914
 Frc consts  --      0.7303                 0.6498                 0.9978
 IR Inten    --      8.0708                56.1237                81.2167

                     28                     29                     30
                      A                      A                      A
 Frequencies --    611.8894               625.7284               630.3796
 Red. masses --      5.2310                 7.3617                 7.1081
 Frc consts  --      1.1539                 1.6982                 1.6642
 IR Inten    --    123.1040                24.7046                 0.1291

                     31                     32                     33
                      A                      A                      A
 Frequencies --    687.7887               766.2577               808.7216
 Red. masses --      3.8255                 7.4385                 5.0815
 Frc consts  --      1.0662                 2.5733                 1.9581
 IR Inten    --     39.0193               128.9829               122.1839

                     34                     35                     36
                      A                      A                      A
 Frequencies --    819.8096               838.3908               859.8759
 Red. masses --      2.6058                 6.3317                 1.2545
 Frc consts  --      1.0318                 2.6222                 0.5465
 IR Inten    --     10.8088               284.2281                 0.7910

                     37                     38                     39
                      A                      A                      A
 Frequencies --    866.1711               868.4519               895.2541
 Red. masses --      2.8405                 1.6298                 1.9292
 Frc consts  --      1.2556                 0.7242                 0.9110
 IR Inten    --    244.1386                34.3402               105.6729

                     40                     41                     42
                      A                      A                      A
 Frequencies --    925.7067               947.5966               986.8828
 Red. masses --      1.5892                 1.8420                 2.7083
 Frc consts  --      0.8024                 0.9745                 1.5541
 IR Inten    --    170.3426                20.2927                45.5676

                     43                     44                     45
                      A                      A                      A
 Frequencies --   1004.2694              1020.3009              1022.0108
 Red. masses --      2.0674                 4.3760                 1.4605
 Frc consts  --      1.2285                 2.6840                 0.8988
 IR Inten    --     27.8335                47.2196                 3.1579

                     46                     47                     48
                      A                      A                      A
 Frequencies --   1026.5843              1033.6162              1075.8764
 Red. masses --      1.6489                 1.9332                 4.0869
 Frc consts  --      1.0238                 1.2169                 2.7872
 IR Inten    --      3.4231                23.1651               520.0560

                     49                     50                     51
                      A                      A                      A
 Frequencies --   1089.2077              1106.1207              1108.3679
 Red. masses --      2.9416                 3.7048                 2.7455
 Frc consts  --      2.0561                 2.6707                 1.9872
 IR Inten    --     80.2730                44.6722                58.7589

                     52                     53                     54
                      A                      A                      A
 Frequencies --   1118.1951              1125.1916              1137.9882
 Red. masses --      4.0447                 3.7927                 1.2782
 Frc consts  --      2.9797                 2.8291                 0.9753
 IR Inten    --     27.2018                78.2353                17.8829

                     55                     56                     57
                      A                      A                      A
 Frequencies --   1143.1414              1158.8144              1172.1771
 Red. masses --      3.0236                 3.0007                 3.7057
 Frc consts  --      2.3280                 2.3741                 2.9999
 IR Inten    --     58.3004                15.8656               480.3069

                     58                     59                     60
                      A                      A                      A
 Frequencies --   1187.8520              1206.5870              1227.7371
 Red. masses --      2.8151                 1.3347                 1.3041
 Frc consts  --      2.3403                 1.1449                 1.1582
 IR Inten    --     39.7268                38.9667                18.0000

                     61                     62                     63
                      A                      A                      A
 Frequencies --   1247.4065              1261.7943              1281.3512
 Red. masses --      1.2523                 1.2401                 1.4088
 Frc consts  --      1.1481                 1.1633                 1.3628
 IR Inten    --      9.9635                10.1013                 2.2791

                     64                     65                     66
                      A                      A                      A
 Frequencies --   1295.8883              1306.2462              1321.9416
 Red. masses --      1.5391                12.5029                 1.2236
 Frc consts  --      1.5229                12.5693                 1.2599
 IR Inten    --     11.1182               536.4023                 3.4437

                     67                     68                     69
                      A                      A                      A
 Frequencies --   1324.1849              1339.0927              1342.7129
 Red. masses --      1.3359                 7.3155                 1.2800
 Frc consts  --      1.3801                 7.7288                 1.3597
 IR Inten    --      9.2307                 1.2768                 4.1159

                     70                     71                     72
                      A                      A                      A
 Frequencies --   1348.9758              1361.0646              1377.9789
 Red. masses --      1.3261                 1.5110                 1.3011
 Frc consts  --      1.4218                 1.6492                 1.4557
 IR Inten    --      3.9735                 7.3580                15.0941

                     73                     74                     75
                      A                      A                      A
 Frequencies --   1395.1581              1426.3732              1436.1626
 Red. masses --      1.6687                 1.6071                 1.6839
 Frc consts  --      1.9137                 1.9264                 2.0463
 IR Inten    --      8.9903                 6.1493                11.4968

                     76                     77                     78
                      A                      A                      A
 Frequencies --   1441.5394              1502.3874              1508.5933
 Red. masses --      3.1829                 1.0969                 1.1013
 Frc consts  --      3.8970                 1.4587                 1.4767
 IR Inten    --     57.9937                 5.4646                 6.5116

                     79                     80                     81
                      A                      A                      A
 Frequencies --   1519.7463              1614.4268              1655.2852
 Red. masses --      2.2647                 1.0924                 6.2977
 Frc consts  --      3.0818                 1.6775                10.1666
 IR Inten    --     37.9715                70.1620               107.2879

                     82                     83                     84
                      A                      A                      A
 Frequencies --   1658.5782              3045.2353              3057.0728
 Red. masses --      7.8040                 1.0827                 1.0696
 Frc consts  --     12.6484                 5.9156                 5.8894
 IR Inten    --     10.7734                23.8530               122.4223

                     85                     86                     87
                      A                      A                      A
 Frequencies --   3064.5244              3123.7246              3143.6302
 Red. masses --      1.0677                 1.0874                 1.0869
 Frc consts  --      5.9076                 6.2516                 6.3285
 IR Inten    --     45.4354                29.0206                12.9986

                     88                     89                     90
                      A                      A                      A
 Frequencies --   3151.0527              3168.2646              3179.0190
 Red. masses --      1.0887                 1.0992                 1.1005
 Frc consts  --      6.3688                 6.5009                 6.5531
 IR Inten    --     37.6457                27.2846                15.0401

                     91                     92                     93
                      A                      A                      A
 Frequencies --   3244.9851              3246.5868              3255.3540
 Red. masses --      1.0910                 1.0908                 1.0972
 Frc consts  --      6.7686                 6.7742                 6.8505
 IR Inten    --      5.4923                 3.0270                 8.2225

                     94                     95                     96
                      A                      A                      A
 Frequencies --   3257.1680              3517.3539              3596.9090
 Red. masses --      1.0977                 1.0518                 1.0927
 Frc consts  --      6.8617                 7.6665                 8.3293
 IR Inten    --      2.5667                10.6539                28.5860

 - Thermochemistry -
 -------------------
 Temperature   298.150 Kelvin.  Pressure   1.00000 Atm.
 Atom     1 has atomic number 35 and mass  78.91834

 Molecular mass:   362.97761 amu.
 Principal axes and moments of inertia in atomic units:
                           1         2         3
     Eigenvalues --  3135.41662********************
           X            0.99975   0.02238  -0.00102
           Y           -0.02239   0.99969  -0.01091
           Z            0.00078   0.01093   0.99994
 This molecule is an asymmetric top.
 Rotational symmetry number  1.
 Warning -- assumption of classical behavior for rotation
           may cause significant error
 Rotational temperatures (Kelvin)      0.02762     0.00445     0.00406
 Rotational constants (GHZ):           0.57560     0.09274     0.08467
 Zero-point vibrational energy     692078.5 (Joules/Mol)
                                  165.41073 (Kcal/Mol)
 Warning -- explicit consideration of  28 degrees of freedom as
           vibrations may cause significant error
 Vibrational temperatures:     23.35    33.85    42.24    53.20    99.01
          (Kelvin)            128.95   203.88   214.82   246.22   273.18
                              303.19   326.39   335.77   379.91   440.17
                              462.95   508.92   539.01   581.44   606.75
                              610.95   694.95   711.30   713.87   744.94
                              796.96   838.07   880.37   900.28   906.98
                              989.57  1102.47  1163.57  1179.52  1206.26
                             1237.17  1246.23  1249.51  1288.07  1331.89
                             1363.38  1419.90  1444.92  1467.99  1470.45
                             1477.03  1487.14  1547.95  1567.13  1591.46
                             1594.69  1608.83  1618.90  1637.31  1644.73
                             1667.28  1686.50  1709.05  1736.01  1766.44
                             1794.74  1815.44  1843.58  1864.49  1879.40
                             1901.98  1905.21  1926.66  1931.86  1940.88
                             1958.27  1982.60  2007.32  2052.23  2066.32
                             2074.05  2161.60  2170.53  2186.58  2322.80
                             2381.59  2386.32  4381.41  4398.45  4409.17
                             4494.34  4522.98  4533.66  4558.43  4573.90
                             4668.81  4671.11  4683.73  4686.34  5060.69
                             5175.15

 Zero-point correction=                           0.263599 (Hartree/Particle)
 Thermal correction to Energy=                    0.281553
 Thermal correction to Enthalpy=                  0.282497
 Thermal correction to Gibbs Free Energy=         0.213469
 Sum of electronic and zero-point Energies=          -3865.890621
 Sum of electronic and thermal Energies=             -3865.872667
 Sum of electronic and thermal Enthalpies=           -3865.871723
 Sum of electronic and thermal Free Energies=        -3865.940751

                     E (Thermal)             CV                S
                      KCal/Mol        Cal/Mol-Kelvin    Cal/Mol-Kelvin
 Total                  176.677             67.661            145.281
 Electronic               0.000              0.000              0.000
 Translational            0.889              2.981             43.561
 Rotational               0.889              2.981             35.518
 Vibrational            174.900             61.699             66.202
 Vibration     1          0.593              1.986              7.049
 Vibration     2          0.593              1.985              6.312
 Vibration     3          0.593              1.984              5.872
 Vibration     4          0.594              1.982              5.415
 Vibration     5          0.598              1.969              4.187
 Vibration     6          0.602              1.957              3.668
 Vibration     7          0.615              1.912              2.781
 Vibration     8          0.618              1.903              2.681
 Vibration     9          0.626              1.878              2.423
 Vibration    10          0.633              1.854              2.229
 Vibration    11          0.643              1.824              2.037
 Vibration    12          0.651              1.800              1.904
 Vibration    13          0.654              1.790              1.853
 Vibration    14          0.671              1.739              1.635
 Vibration    15          0.696              1.662              1.384
 Vibration    16          0.707              1.632              1.301
 Vibration    17          0.730              1.568              1.150
 Vibration    18          0.746              1.524              1.061
 Vibration    19          0.769              1.461              0.948
 Vibration    20          0.784              1.423              0.886
 Vibration    21          0.787              1.417              0.876
 Vibration    22          0.839              1.288              0.702
 Vibration    23          0.850              1.262              0.672
 Vibration    24          0.852              1.259              0.668
 Vibration    25          0.873              1.211              0.615
 Vibration    26          0.909              1.131              0.536
 Vibration    27          0.939              1.069              0.481
 Vibration    28          0.971              1.007              0.430

                           ! Non-Optimized Parameters !
 Normal termination of Gaussian 16 at Thu Jul 27 00:31:45 2023.
