 Gaussian 16, Revision A.03,
 Gaussian 16:  ES64L-G16RevA.03 25-Dec-2016

 -------------------------------------------------------
 #P M062X/6-31+G(d,p) Opt Freq SCRF=(SMD, Solvent=Water)
 -------------------------------------------------------

 ---------------
 2-2_charged_pka
 ---------------
 Symbolic Z-matrix:
 Charge =  1 Multiplicity = 1

 SCF Done:  E(RM062X) =  -3866.25523251     A.U. after   20 cycles
 SCF Done:  E(RM062X) =  -3866.37262028     A.U. after   18 cycles
 SCF Done:  E(RM062X) =  -3866.50305362     A.U. after   17 cycles
 SCF Done:  E(RM062X) =  -3866.55395061     A.U. after   17 cycles
 SCF Done:  E(RM062X) =  -3866.58728213     A.U. after   17 cycles
 SCF Done:  E(RM062X) =  -3866.60179184     A.U. after   16 cycles
 SCF Done:  E(RM062X) =  -3866.60844313     A.U. after   16 cycles
 SCF Done:  E(RM062X) =  -3866.61186764     A.U. after   16 cycles
 SCF Done:  E(RM062X) =  -3866.61329271     A.U. after   16 cycles
 SCF Done:  E(RM062X) =  -3866.61388200     A.U. after   15 cycles
 SCF Done:  E(RM062X) =  -3866.62046081     A.U. after   15 cycles
 SCF Done:  E(RM062X) =  -3866.62047291     A.U. after   14 cycles
 SCF Done:  E(RM062X) =  -3866.62047539     A.U. after   12 cycles
 SCF Done:  E(RM062X) =  -3866.62047852     A.U. after   11 cycles
 SCF Done:  E(RM062X) =  -3866.62047995     A.U. after   11 cycles
 SCF Done:  E(RM062X) =  -3866.62048168     A.U. after   12 cycles
 SCF Done:  E(RM062X) =  -3866.62048227     A.U. after   10 cycles
 SCF Done:  E(RM062X) =  -3866.62048288     A.U. after   10 cycles
 SCF Done:  E(RM062X) =  -3866.62048312     A.U. after    8 cycles
 Optimization completed.
    -- Stationary point found.
 Normal termination of Gaussian 16 at Sat Aug  5 21:50:54 2023.

 ----------------------------------------------------------------------
 #P Geom=AllCheck Guess=TCheck SCRF=Check GenChk RM062X/6-31+G(d,p) Fre
 q
 ----------------------------------------------------------------------

 Structure from the checkpoint file:  "/home/ch/tchem07/g16/2-2_charged_pka.chk"
 ---------------
 2-2_charged_pka
 ---------------
 Charge =  1 Multiplicity = 1

                         Standard orientation:
 ---------------------------------------------------------------------
 Center     Atomic      Atomic             Coordinates (Angstroms)
 Number     Number       Type             X           Y           Z
 ---------------------------------------------------------------------
      1          7           0       -1.878829   -3.678282   -0.717505
      2          6           0       -1.906645   -2.604066    0.322060
      3          6           0       -0.841892   -1.561430    0.023409
      4          8           0       -1.415630   -0.770408   -1.022542
      5          6           0       -2.809184   -0.646723   -0.781053
      6          6           0       -3.194666   -1.797142    0.186354
      7          8           0       -3.484810   -1.182109    1.432758
      8          6           0       -4.049047    0.095312    1.129725
      9          6           0       -3.190966    0.636231    0.001380
     10          8           0       -2.020964    1.229978    0.619284
     11         16           0       -1.061857    2.189908   -0.248389
     12          8           0       -1.527523    2.221544   -1.627641
     13          8           0       -0.986167    3.438282    0.499517
     14          6           0        0.504574    1.380224   -0.138292
     15          6           0        1.104091    1.279260    1.114677
     16          6           0        2.331155    0.634429    1.216193
     17          6           0        2.922109    0.127487    0.060656
     18         35           0        4.606182   -0.713682    0.193680
     19          6           0        2.325716    0.244013   -1.191831
     20          6           0        1.090979    0.876849   -1.293628
     21          1           0       -1.929474   -3.284632   -1.665301
     22          1           0       -1.008142   -4.216891   -0.651488
     23          1           0       -2.664948   -4.327313   -0.602126
     24          1           0       -1.805147   -3.080087    1.296041
     25          1           0        0.105157   -1.971507   -0.334497
     26          1           0       -0.672156   -0.960729    0.924140
     27          1           0       -3.329671   -0.685966   -1.738047
     28          1           0       -4.048769   -2.387920   -0.162803
     29          1           0       -4.026590    0.712387    2.027662
     30          1           0       -5.080564   -0.021251    0.775103
     31          1           0       -3.700952    1.381370   -0.607375
     32          1           0        0.627817    1.688636    2.000273
     33          1           0        2.817245    0.538121    2.180269
     34          1           0        2.808631   -0.150376   -2.078707
     35          1           0        0.596118    0.969535   -2.254097
 ---------------------------------------------------------------------

 SCF Done:  E(RM062X) =  -3866.62048312     A.U. after    2 cycles

 The electronic state is 1-A.
 Alpha  occ. eigenvalues -- -485.49731 -90.20257 -62.77759 -57.30821 -57.30553
 Alpha  occ. eigenvalues --  -57.30528 -19.71843 -19.67775 -19.67571 -19.67569
 Alpha  occ. eigenvalues --  -19.67060 -14.87812 -10.63514 -10.63214 -10.62335
 Alpha  occ. eigenvalues --  -10.62258 -10.61946 -10.61202 -10.61034 -10.60802
 Alpha  occ. eigenvalues --  -10.59114 -10.59021 -10.58400 -10.58350  -8.94736
 Alpha  occ. eigenvalues --   -8.51049  -6.90105  -6.89094  -6.89057  -6.43334
 Alpha  occ. eigenvalues --   -6.43201  -6.43066  -2.92957  -2.92602  -2.92571
 Alpha  occ. eigenvalues --   -2.91673  -2.91673  -1.29806  -1.21343  -1.18241
 Alpha  occ. eigenvalues --   -1.18066  -1.15884  -1.11006  -1.00855  -0.93424
 Alpha  occ. eigenvalues --   -0.90984  -0.89474  -0.87906  -0.85720  -0.84277
 Alpha  occ. eigenvalues --   -0.77593  -0.73142  -0.72843  -0.71293  -0.70358
 Alpha  occ. eigenvalues --   -0.68151  -0.66010  -0.65523  -0.63970  -0.62944
 Alpha  occ. eigenvalues --   -0.61363  -0.60110  -0.59296  -0.57588  -0.56255
 Alpha  occ. eigenvalues --   -0.55660  -0.54602  -0.53916  -0.53651  -0.51974
 Alpha  occ. eigenvalues --   -0.51785  -0.51434  -0.50047  -0.48330  -0.47107
 Alpha  occ. eigenvalues --   -0.46388  -0.45509  -0.44949  -0.44820  -0.43949
 Alpha  occ. eigenvalues --   -0.43184  -0.42842  -0.41510  -0.40832  -0.40316
 Alpha  occ. eigenvalues --   -0.40033  -0.39053  -0.36146  -0.36057  -0.34973
 Alpha  occ. eigenvalues --   -0.33490  -0.31479
 Alpha virt. eigenvalues --   -0.02846  -0.00631   0.00394   0.01155   0.01611
 Alpha virt. eigenvalues --    0.01974   0.02367   0.03278   0.03710   0.03907
 Alpha virt. eigenvalues --    0.04176   0.04299   0.05193   0.05362   0.05696

 Mulliken charges:
               1
     1  N   -0.736172
     2  C   -0.074866
     3  C   -0.105538
     4  O   -0.390695
     5  C   -0.122447
     6  C   -0.125203
     7  O   -0.405829
     8  C   -0.191727
     9  C    0.306588
    10  O   -0.530843
    11  S    1.226741
    12  O   -0.605061
    13  O   -0.504604
    14  C   -1.413387
    15  C    0.755257
    16  C   -0.281188
    17  C    0.088813
    18  Br   0.135915
    19  C   -0.292427
    20  C    0.148073
    21  H    0.469942
    22  H    0.465183
    23  H    0.461637
    24  H    0.261533
    25  H    0.217831
    26  H    0.216399
    27  H    0.231453
    28  H    0.224182
    29  H    0.214554
    30  H    0.206956
    31  H    0.232965
    32  H    0.237253
    33  H    0.223951
    34  H    0.221888
    35  H    0.232875
 Sum of Mulliken charges =   1.00000

 Dipole moment (field-independent basis, Debye):
    X=            -10.3655    Y=            -22.1075    Z=             -2.9437  Tot=             24.5937
 Quadrupole moment (field-independent basis, Debye-Ang):
   XX=            -94.7922   YY=            -88.1630   ZZ=           -128.5062
   XY=             37.3718   XZ=              9.1715   YZ=             17.4741

  Exact polarizability: 297.578 -40.698 230.619   7.463   9.896 251.316
 Approx polarizability: 250.947 -33.282 204.256   7.025   8.677 235.263

                      1                      2                      3
                      A                      A                      A
 Frequencies --     22.9615                35.9824                55.1019
 Red. masses --      6.5820                 5.8865                 4.2273
 Frc consts  --      0.0020                 0.0045                 0.0076
 IR Inten    --     13.2075                 0.5632                 1.2810

                      4                      5                      6
                      A                      A                      A
 Frequencies --     74.7041               100.7184               121.7977
 Red. masses --      4.6641                 5.2506                 7.5163
 Frc consts  --      0.0153                 0.0314                 0.0657
 IR Inten    --      6.8644                 2.4598                26.6318

                      7                      8                      9
                      A                      A                      A
 Frequencies --    138.0477               165.6009               177.9667
 Red. masses --      7.6684                 4.5885                 5.3251
 Frc consts  --      0.0861                 0.0741                 0.0994
 IR Inten    --      8.3230                10.0928                13.9957

                     10                     11                     12
                      A                      A                      A
 Frequencies --    201.2842               221.7895               228.0501
 Red. masses --      7.2773                14.4778                 1.0691
 Frc consts  --      0.1737                 0.4196                 0.0328
 IR Inten    --     24.6967                 0.8940                 0.8036

                     13                     14                     15
                      A                      A                      A
 Frequencies --    257.2792               269.8442               279.5322
 Red. masses --      6.7292                 6.3051                 4.8288
 Frc consts  --      0.2624                 0.2705                 0.2223
 IR Inten    --     13.3014                 0.6848                 2.6078

                     16                     17                     18
                      A                      A                      A
 Frequencies --    342.2043               357.1035               368.5801
 Red. masses --      3.3014                 2.7130                 4.6647
 Frc consts  --      0.2278                 0.2038                 0.3734
 IR Inten    --      7.4492                28.6037                13.7614

                     19                     20                     21
                      A                      A                      A
 Frequencies --    374.1100               421.6543               428.4494
 Red. masses --      6.5828                 2.8863                 8.3637
 Frc consts  --      0.5428                 0.3023                 0.9046
 IR Inten    --      6.2263                 1.4073                64.9345

                     22                     23                     24
                      A                      A                      A
 Frequencies --    452.0146               472.8637               494.1917
 Red. masses --      3.8575                 4.1326                 4.9753
 Frc consts  --      0.4644                 0.5444                 0.7159
 IR Inten    --      5.7804                21.8328                 9.1883

                     25                     26                     27
                      A                      A                      A
 Frequencies --    550.1574               572.3917               612.9356
 Red. masses --      3.8541                 6.7187                 5.8749
 Frc consts  --      0.6873                 1.2970                 1.3004
 IR Inten    --    111.7065                98.3297                33.4640

                     28                     29                     30
                      A                      A                      A
 Frequencies --    618.6336               631.0089               712.0182
 Red. masses --      9.4352                 7.1066                 6.1330
 Frc consts  --      2.1275                 1.6672                 1.8319
 IR Inten    --    123.0603                 1.8342                53.6776

                     31                     32                     33
                      A                      A                      A
 Frequencies --    754.2524               765.5315               780.7647
 Red. masses --      3.6234                 6.9110                 3.2325
 Frc consts  --      1.2145                 2.3863                 1.1610
 IR Inten    --      5.0562               118.2153                 1.3008

                     34                     35                     36
                      A                      A                      A
 Frequencies --    803.4323               834.5345               857.7094
 Red. masses --      6.1885                 3.0181                 1.3239
 Frc consts  --      2.3536                 1.2384                 0.5738
 IR Inten    --    205.9110                95.6551                15.6883

                     37                     38                     39
                      A                      A                      A
 Frequencies --    862.1770               879.7065               894.1895
 Red. masses --      1.4348                 2.4575                 5.6175
 Frc consts  --      0.6284                 1.1205                 2.6464
 IR Inten    --     36.6814                42.3798                32.9475

                     40                     41                     42
                      A                      A                      A
 Frequencies --    930.2393               942.2372               982.3404
 Red. masses --      2.6523                 2.6509                 1.9674
 Frc consts  --      1.3523                 1.3866                 1.1186
 IR Inten    --    194.0231               147.1065                37.6998

                     43                     44                     45
                      A                      A                      A
 Frequencies --    987.2379               999.4895              1007.1575
 Red. masses --      2.2552                 1.7509                 1.4529
 Frc consts  --      1.2950                 1.0305                 0.8683
 IR Inten    --     25.7513                40.1355                 2.1022

                     46                     47                     48
                      A                      A                      A
 Frequencies --   1016.2173              1020.1695              1021.0643
 Red. masses --      2.3420                 1.4081                 4.8432
 Frc consts  --      1.4250                 0.8634                 2.9750
 IR Inten    --    145.5889                 0.6798                80.0539

                     49                     50                     51
                      A                      A                      A
 Frequencies --   1042.4161              1058.9785              1104.6747
 Red. masses --      2.3486                 1.6915                 3.2187
 Frc consts  --      1.5036                 1.1177                 2.3142
 IR Inten    --     84.9459                55.3501               142.4504

                     52                     53                     54
                      A                      A                      A
 Frequencies --   1109.7377              1117.1496              1128.4334
 Red. masses --      2.7296                 1.5571                 2.3077
 Frc consts  --      1.9806                 1.1449                 1.7313
 IR Inten    --     68.9352                34.4775                47.9957

                     55                     56                     57
                      A                      A                      A
 Frequencies --   1139.7569              1154.9297              1170.4848
 Red. masses --      1.3294                 2.1558                 3.9107
 Frc consts  --      1.0175                 1.6942                 3.1567
 IR Inten    --     12.1335                43.9916               296.1183

                     58                     59                     60
                      A                      A                      A
 Frequencies --   1176.1897              1183.2707              1207.0595
 Red. masses --      4.8738                 4.4514                 1.2829
 Frc consts  --      3.9726                 3.6721                 1.1013
 IR Inten    --     59.1556               308.2469                28.9733

                     61                     62                     63
                      A                      A                      A
 Frequencies --   1242.3242              1260.6083              1278.0934
 Red. masses --      1.4498                 1.4785                 1.3350
 Frc consts  --      1.3183                 1.3843                 1.2849
 IR Inten    --     24.5155                 8.7211                40.3448

                     64                     65                     66
                      A                      A                      A
 Frequencies --   1309.8220              1310.9139              1318.3912
 Red. masses --      2.8788                 2.2185                 1.8530
 Frc consts  --      2.9099                 2.2463                 1.8976
 IR Inten    --    289.5621               276.7168                 3.8273

                     67                     68                     69
                      A                      A                      A
 Frequencies --   1324.9825              1337.3125              1343.0272
 Red. masses --      1.4347                 5.0693                 1.4547
 Frc consts  --      1.4840                 5.3415                 1.5460
 IR Inten    --     13.5786                 4.4160                 8.7372

                     70                     71                     72
                      A                      A                      A
 Frequencies --   1346.0070              1367.3648              1387.0162
 Red. masses --      1.1982                 1.5624                 1.2322
 Frc consts  --      1.2790                 1.7211                 1.3967
 IR Inten    --      5.9235                 5.4059                 8.1884

                     73                     74                     75
                      A                      A                      A
 Frequencies --   1392.5142              1408.4521              1436.5923
 Red. masses --      1.3259                 1.4658                 1.6723
 Frc consts  --      1.5148                 1.7132                 2.0334
 IR Inten    --      9.7444                 2.8058                14.2144

                     76                     77                     78
                      A                      A                      A
 Frequencies --   1440.7924              1491.0398              1491.9157
 Red. masses --      3.1526                 1.0971                 1.1011
 Frc consts  --      3.8559                 1.4371                 1.4440
 IR Inten    --     58.5132                34.9587                26.3915

                     79                     80                     81
                      A                      A                      A
 Frequencies --   1500.1562              1521.8115              1604.3638
 Red. masses --      1.1672                 2.2622                 1.0427
 Frc consts  --      1.5477                 3.0868                 1.5813
 IR Inten    --    192.5814                42.7424                76.3409

                     82                     83                     84
                      A                      A                      A
 Frequencies --   1610.6277              1655.9334              1659.3642
 Red. masses --      1.0402                 6.3046                 7.7821
 Frc consts  --      1.5899                10.1858                12.6249
 IR Inten    --     75.3905                85.5808                11.7017

                     85                     86                     87
                      A                      A                      A
 Frequencies --   3084.5032              3098.1968              3109.4136
 Red. masses --      1.0675                 1.0615                 1.0876
 Frc consts  --      5.9837                 6.0035                 6.1957
 IR Inten    --     40.6866                29.3273                28.5156

                     88                     89                     90
                      A                      A                      A
 Frequencies --   3168.1066              3170.5769              3187.0953
 Red. masses --      1.0919                 1.1045                 1.0895
 Frc consts  --      6.4567                 6.5417                 6.5200
 IR Inten    --      9.0623                 8.8194                11.0383

                     91                     92                     93
                      A                      A                      A
 Frequencies --   3193.8989              3197.1950              3237.6895
 Red. masses --      1.1013                 1.0904                 1.0920
 Frc consts  --      6.6190                 6.5670                 6.7446
 IR Inten    --      6.4725                 0.5223                 2.9109

                     94                     95                     96
                      A                      A                      A
 Frequencies --   3249.7961              3256.9057              3259.4040
 Red. masses --      1.0905                 1.0958                 1.0973
 Frc consts  --      6.7858                 6.8486                 6.8683
 IR Inten    --      2.7979                 4.5329                 4.5690

                     97                     98                     99
                      A                      A                      A
 Frequencies --   3418.0445              3504.0441              3511.7682
 Red. masses --      1.0318                 1.0942                 1.0948
 Frc consts  --      7.1022                 7.9154                 7.9547
 IR Inten    --    109.1969               233.3140               235.5004

 - Thermochemistry -
 -------------------
 Temperature   298.150 Kelvin.  Pressure   1.00000 Atm.
 Atom     1 has atomic number  7 and mass  14.00307

 Molecular mass:   363.98543 amu.
 Principal axes and moments of inertia in atomic units:
                           1         2         3
     Eigenvalues --  4419.96039********************
           X            0.99949   0.03172  -0.00253
           Y           -0.03167   0.99936   0.01645
           Z            0.00305  -0.01636   0.99986
 This molecule is an asymmetric top.
 Rotational symmetry number  1.
 Warning -- assumption of classical behavior for rotation
           may cause significant error
 Rotational temperatures (Kelvin)      0.01960     0.00734     0.00597
 Rotational constants (GHZ):           0.40832     0.15287     0.12443
 Zero-point vibrational energy     731974.5 (Joules/Mol)
                                  174.94610 (Kcal/Mol)
 Warning -- explicit consideration of  28 degrees of freedom as
           vibrations may cause significant error
 Vibrational temperatures:     33.04    51.77    79.28   107.48   144.91
          (Kelvin)            175.24   198.62   238.26   256.05   289.60
                              319.11   328.11   370.17   388.25   402.18
                              492.36   513.79   530.30   538.26   606.67
                              616.44   650.35   680.35   711.03   791.55
                              823.54   881.88   890.08   907.88  1024.44
                             1085.20  1101.43  1123.35  1155.96  1200.71
                             1234.05  1240.48  1265.70  1286.54  1338.41
                             1355.67  1413.37  1420.42  1438.04  1449.07
                             1462.11  1467.80  1469.08  1499.80  1523.63
                             1589.38  1596.67  1607.33  1623.56  1639.86
                             1661.69  1684.07  1692.27  1702.46  1736.69
                             1787.43  1813.73  1838.89  1884.54  1886.11
                             1896.87  1906.35  1924.09  1932.32  1936.60
                             1967.33  1995.61  2003.52  2026.45  2066.94
                             2072.98  2145.27  2146.53  2158.39  2189.55
                             2308.32  2317.33  2382.52  2387.45  4437.91
                             4457.61  4473.75  4558.20  4561.75  4585.52
                             4595.31  4600.05  4658.31  4675.73  4685.96
                             4689.56  4917.80  5041.54  5052.65

 Zero-point correction=                           0.278794 (Hartree/Particle)
 Thermal correction to Energy=                    0.296361
 Thermal correction to Enthalpy=                  0.297305
 Thermal correction to Gibbs Free Energy=         0.231402
 Sum of electronic and zero-point Energies=          -3866.341689
 Sum of electronic and thermal Energies=             -3866.324122
 Sum of electronic and thermal Enthalpies=           -3866.323178
 Sum of electronic and thermal Free Energies=        -3866.389081

                     E (Thermal)             CV                S
                      KCal/Mol        Cal/Mol-Kelvin    Cal/Mol-Kelvin
 Total                  185.969             67.686            138.704
 Electronic               0.000              0.000              0.000
 Translational            0.889              2.981             43.569
 Rotational               0.889              2.981             34.980
 Vibrational            184.192             61.724             60.155
 Vibration     1          0.593              1.985              6.360
 Vibration     2          0.594              1.982              5.469
 Vibration     3          0.596              1.976              4.625
 Vibration     4          0.599              1.966              4.025
 Vibration     5          0.604              1.949              3.440
 Vibration     6          0.609              1.931              3.072
 Vibration     7          0.614              1.915              2.831
 Vibration     8          0.624              1.885              2.485
 Vibration     9          0.628              1.869              2.350
 Vibration    10          0.638              1.838              2.121
 Vibration    11          0.648              1.808              1.944
 Vibration    12          0.651              1.798              1.894
 Vibration    13          0.667              1.750              1.680
 Vibration    14          0.674              1.729              1.597
 Vibration    15          0.680              1.711              1.537
 Vibration    16          0.721              1.591              1.202
 Vibration    17          0.732              1.561              1.135
 Vibration    18          0.741              1.537              1.086
 Vibration    19          0.745              1.525              1.063
 Vibration    20          0.784              1.423              0.886
 Vibration    21          0.790              1.408              0.864
 Vibration    22          0.811              1.356              0.790
 Vibration    23          0.830              1.310              0.730
 Vibration    24          0.850              1.263              0.673
 Vibration    25          0.905              1.139              0.544
 Vibration    26          0.929              1.091              0.500
 Vibration    27          0.972              1.004              0.428
 Vibration    28          0.978              0.993              0.419

                           ! Non-Optimized Parameters !
 Normal termination of Gaussian 16 at Sun Aug  6 05:45:38 2023.
