 Gaussian 16, Revision A.03,
 Gaussian 16:  ES64L-G16RevA.03 25-Dec-2016

 -------------------------------------------------------
 #P M062X/6-31+G(d,p) Opt Freq SCRF=(SMD, Solvent=Water)
 -------------------------------------------------------

 ----------------
 2-20_neutral_pka
 ----------------
 Symbolic Z-matrix:
 Charge =  0 Multiplicity = 1

 SCF Done:  E(RM062X) =  -3905.35665997     A.U. after   16 cycles
 SCF Done:  E(RM062X) =  -3905.40165976     A.U. after   16 cycles
 SCF Done:  E(RM062X) =  -3905.40941738     A.U. after   17 cycles
 SCF Done:  E(RM062X) =  -3905.43310121     A.U. after   17 cycles
 SCF Done:  E(RM062X) =  -3905.43801986     A.U. after   16 cycles
 SCF Done:  E(RM062X) =  -3905.43996800     A.U. after   16 cycles
 SCF Done:  E(RM062X) =  -3905.43989342     A.U. after   16 cycles
 SCF Done:  E(RM062X) =  -3905.44045804     A.U. after   16 cycles
 SCF Done:  E(RM062X) =  -3905.44054002     A.U. after   16 cycles
 SCF Done:  E(RM062X) =  -3905.44059172     A.U. after   16 cycles
 SCF Done:  E(RM062X) =  -3905.44074020     A.U. after   15 cycles
 SCF Done:  E(RM062X) =  -3905.44077531     A.U. after   12 cycles
 SCF Done:  E(RM062X) =  -3905.44078138     A.U. after   12 cycles
 SCF Done:  E(RM062X) =  -3905.44078062     A.U. after   11 cycles
 SCF Done:  E(RM062X) =  -3905.44078204     A.U. after   10 cycles
 SCF Done:  E(RM062X) =  -3905.44078132     A.U. after   11 cycles
 SCF Done:  E(RM062X) =  -3905.44078196     A.U. after   11 cycles
 SCF Done:  E(RM062X) =  -3905.44078217     A.U. after    8 cycles
 SCF Done:  E(RM062X) =  -3905.44078212     A.U. after    9 cycles
 Optimization completed.
    -- Stationary point found.
 Normal termination of Gaussian 16 at Sat Jul 29 06:36:10 2023.

 ----------------------------------------------------------------------
 #P Geom=AllCheck Guess=TCheck SCRF=Check GenChk RM062X/6-31+G(d,p) Fre
 q
 ----------------------------------------------------------------------

 Structure from the checkpoint file:  "/home/ch/tchem07/g16/2-20_neutral_pka.chk"
 ----------------
 2-20_neutral_pka
 ----------------
 Charge =  0 Multiplicity = 1

                         Standard orientation:
 ---------------------------------------------------------------------
 Center     Atomic      Atomic             Coordinates (Angstroms)
 Number     Number       Type             X           Y           Z
 ---------------------------------------------------------------------
      1         35           0        5.759480    1.262091   -0.038453
      2          6           0        4.115480    0.336769   -0.050613
      3          6           0        3.418793    0.222261   -1.250911
      4          6           0        2.203026   -0.451967   -1.260987
      5          6           0        1.729958   -0.986388   -0.066163
      6         16           0        0.184035   -1.829605   -0.073986
      7          8           0        0.120944   -2.799268    1.012360
      8          8           0       -0.776824   -0.591004    0.289927
      9          6           0       -2.155496   -0.908672    0.574975
     10          6           0       -2.864893    0.354260    1.052615
     11          8           0       -2.383981    1.491283    0.344524
     12          6           0       -3.511708    2.347431    0.149487
     13          6           0       -4.635336    1.396473   -0.249954
     14          7           0       -5.961583    1.931623    0.021385
     15          6           0       -6.999629    1.061846   -0.534877
     16          6           0       -4.316634    0.134874    0.571496
     17          8           0       -4.311418   -1.067900   -0.211741
     18          6           0       -2.978287   -1.306252   -0.651437
     19          8           0       -0.134181   -2.286269   -1.421221
     20          6           0        2.423298   -0.876234    1.136447
     21          6           0        3.639014   -0.202853    1.142148
     22          1           0        3.811497    0.647849   -2.167100
     23          1           0        1.642246   -0.559994   -2.183359
     24          1           0       -2.199965   -1.678397    1.350428
     25          1           0       -2.780772    0.514940    2.131072
     26          1           0       -3.252024    3.075974   -0.619824
     27          1           0       -3.757512    2.867654    1.085579
     28          1           0       -4.509859    1.128371   -1.313119
     29          1           0       -6.026751    2.834455   -0.445839
     30          1           0       -7.976607    1.532479   -0.410848
     31          1           0       -6.846755    0.843624   -1.602072
     32          1           0       -7.013477    0.111002    0.005451
     33          1           0       -5.029056   -0.006469    1.386573
     34          1           0       -2.895983   -2.357040   -0.929989
     35          1           0       -2.714174   -0.667677   -1.505848
     36          1           0        2.030897   -1.308498    2.051079
     37          1           0        4.201189   -0.103165    2.063582
 ---------------------------------------------------------------------

 SCF Done:  E(RM062X) =  -3905.44078212     A.U. after    2 cycles

 The electronic state is 1-A.
 Alpha  occ. eigenvalues -- -485.49707 -90.20336 -62.77755 -57.30829 -57.30562
 Alpha  occ. eigenvalues --  -57.30529 -19.72160 -19.67446 -19.67387 -19.66601
 Alpha  occ. eigenvalues --  -19.66502 -14.75385 -10.63676 -10.62942 -10.61278
 Alpha  occ. eigenvalues --  -10.61147 -10.60438 -10.60178 -10.59364 -10.59287
 Alpha  occ. eigenvalues --  -10.59277 -10.58491 -10.58477 -10.57566 -10.55641
 Alpha  occ. eigenvalues --   -8.94763  -8.51177  -6.90139  -6.89127  -6.89085
 Alpha  occ. eigenvalues --   -6.43448  -6.43317  -6.43207  -2.92991  -2.92636
 Alpha  occ. eigenvalues --   -2.92603  -2.91703  -2.91703  -1.30022  -1.20219
 Alpha  occ. eigenvalues --   -1.18276  -1.16798  -1.15878  -1.01746  -1.01026
 Alpha  occ. eigenvalues --   -0.93669  -0.90355  -0.88058  -0.86751  -0.85382
 Alpha  occ. eigenvalues --   -0.82769  -0.77925  -0.74573  -0.72914  -0.72042
 Alpha  occ. eigenvalues --   -0.69981  -0.67733  -0.66636  -0.64664  -0.62532
 Alpha  occ. eigenvalues --   -0.62253  -0.59188  -0.57957  -0.57030  -0.55949
 Alpha  occ. eigenvalues --   -0.55372  -0.55184  -0.54288  -0.53754  -0.52025
 Alpha  occ. eigenvalues --   -0.51788  -0.51304  -0.50095  -0.48855  -0.48433
 Alpha  occ. eigenvalues --   -0.48035  -0.46873  -0.45714  -0.45211  -0.44365
 Alpha  occ. eigenvalues --   -0.44102  -0.43162  -0.42563  -0.42417  -0.41446
 Alpha  occ. eigenvalues --   -0.41266  -0.40367  -0.39579  -0.39411  -0.37915
 Alpha  occ. eigenvalues --   -0.36080  -0.34577  -0.33863  -0.33723  -0.31851
 Alpha  occ. eigenvalues --   -0.29988
 Alpha virt. eigenvalues --   -0.03197  -0.00761   0.00610   0.01318   0.02235
 Alpha virt. eigenvalues --    0.02594   0.02872   0.03129   0.03537   0.03939
 Alpha virt. eigenvalues --    0.04574   0.04837   0.04960   0.05152   0.05810

 Mulliken charges:
               1
     1  Br   0.053489
     2  C    0.156573
     3  C   -0.242167
     4  C    0.324332
     5  C   -1.258176
     6  S    1.047759
     7  O   -0.544073
     8  O   -0.454608
     9  C   -0.353624
    10  C    0.098409
    11  O   -0.425497
    12  C   -0.134348
    13  C   -0.031328
    14  N   -0.512207
    15  C   -0.307287
    16  C   -0.123894
    17  O   -0.412590
    18  C    0.016427
    19  O   -0.547732
    20  C    0.469418
    21  C   -0.217480
    22  H    0.226831
    23  H    0.240717
    24  H    0.237110
    25  H    0.208952
    26  H    0.196575
    27  H    0.180597
    28  H    0.182433
    29  H    0.348533
    30  H    0.172803
    31  H    0.153842
    32  H    0.172572
    33  H    0.207093
    34  H    0.205116
    35  H    0.198008
    36  H    0.240189
    37  H    0.227230
 Sum of Mulliken charges =   0.00000

 Dipole moment (field-independent basis, Debye):
    X=             -0.4830    Y=              4.9617    Z=              0.3085  Tot=              4.9947
 Quadrupole moment (field-independent basis, Debye-Ang):
   XX=           -127.3943   YY=           -155.5212   ZZ=           -134.4921
   XY=            -12.3251   XZ=              4.4709   YZ=             -7.7888

  Exact polarizability: 322.660  38.210 251.278   3.336  -7.410 276.895
 Approx polarizability: 266.421  33.053 221.510   3.421  -8.281 249.909

                      1                      2                      3
                      A                      A                      A
 Frequencies --     13.4159                26.9376                29.9554
 Red. masses --      6.3478                 4.3142                 6.3593
 Frc consts  --      0.0007                 0.0018                 0.0034
 IR Inten    --      0.6420                 0.1517                 0.1894

                      4                      5                      6
                      A                      A                      A
 Frequencies --     34.5245                68.0111                81.3815
 Red. masses --      4.8721                 6.3799                 5.9033
 Frc consts  --      0.0034                 0.0174                 0.0230
 IR Inten    --      0.5689                 1.3797                 2.3791

                      7                      8                      9
                      A                      A                      A
 Frequencies --    112.0267               140.4446               148.8649
 Red. masses --      3.0826                10.6544                 4.5365
 Frc consts  --      0.0228                 0.1238                 0.0592
 IR Inten    --      3.7943                 6.4683                 6.0405

                     10                     11                     12
                      A                      A                      A
 Frequencies --    167.1099               189.8793               209.5572
 Red. masses --      7.1992                 2.8564                 3.8802
 Frc consts  --      0.1185                 0.0607                 0.1004
 IR Inten    --      2.2400                15.9119                 2.2623

                     13                     14                     15
                      A                      A                      A
 Frequencies --    221.9081               230.9603               260.7046
 Red. masses --      2.5598                 3.8780                 4.6828
 Frc consts  --      0.0743                 0.1219                 0.1875
 IR Inten    --      1.5622                 4.7066                 0.7645

                     16                     17                     18
                      A                      A                      A
 Frequencies --    268.7617               315.3658               345.3058
 Red. masses --      2.1335                 4.1535                 5.8413
 Frc consts  --      0.0908                 0.2434                 0.4104
 IR Inten    --      0.7680                 7.5579                19.4962

                     19                     20                     21
                      A                      A                      A
 Frequencies --    376.7679               397.9870               414.5290
 Red. masses --      4.8730                 4.1175                 3.6085
 Frc consts  --      0.4076                 0.3843                 0.3653
 IR Inten    --     18.2436                 7.3847                24.0571

                     22                     23                     24
                      A                      A                      A
 Frequencies --    422.0423               425.0161               464.9305
 Red. masses --      2.8664                 6.1180                 4.7059
 Frc consts  --      0.3008                 0.6511                 0.5993
 IR Inten    --      1.2300                51.6187                 9.0472

                     25                     26                     27
                      A                      A                      A
 Frequencies --    491.8125               496.8919               516.0368
 Red. masses --      8.9698                 6.6871                 5.2316
 Frc consts  --      1.2783                 0.9728                 0.8208
 IR Inten    --     38.8522                20.0301                14.2233

                     28                     29                     30
                      A                      A                      A
 Frequencies --    565.4088               591.7318               610.3739
 Red. masses --      3.9193                 4.2824                 5.3592
 Frc consts  --      0.7382                 0.8835                 1.1764
 IR Inten    --    122.2252                17.7875               111.1311

                     31                     32                     33
                      A                      A                      A
 Frequencies --    623.5266               631.4022               689.3351
 Red. masses --      5.2487                 7.1054                 3.7270
 Frc consts  --      1.2023                 1.6690                 1.0434
 IR Inten    --     53.3916                 0.1452                35.5220

                     34                     35                     36
                      A                      A                      A
 Frequencies --    766.5398               808.6890               819.9537
 Red. masses --      7.3926                 4.6165                 2.5694
 Frc consts  --      2.5593                 1.7788                 1.0178
 IR Inten    --    130.0085               126.8928                 9.2300

                     37                     38                     39
                      A                      A                      A
 Frequencies --    833.8871               840.4616               860.7377
 Red. masses --      1.4021                 6.6231                 1.2440
 Frc consts  --      0.5744                 2.7564                 0.5430
 IR Inten    --    131.9262               344.9127                 0.1686

                     40                     41                     42
                      A                      A                      A
 Frequencies --    868.7198               879.3241               915.2882
 Red. masses --      1.6382                 3.0411                 2.3091
 Frc consts  --      0.7284                 1.3854                 1.1397
 IR Inten    --     32.0744               174.2445                94.4872

                     43                     44                     45
                      A                      A                      A
 Frequencies --    947.9422               984.7314              1003.8791
 Red. masses --      1.8787                 2.8331                 2.0145
 Frc consts  --      0.9947                 1.6186                 1.1961
 IR Inten    --     28.7484                56.5969                18.0277

                     46                     47                     48
                      A                      A                      A
 Frequencies --   1020.5174              1022.9054              1026.5984
 Red. masses --      4.4627                 1.3920                 1.7210
 Frc consts  --      2.7383                 0.8582                 1.0686
 IR Inten    --     50.1036                 0.3414                 6.3109

                     49                     50                     51
                      A                      A                      A
 Frequencies --   1031.6074              1076.6000              1081.2103
 Red. masses --      2.1930                 4.4460                 2.5457
 Frc consts  --      1.3751                 3.0362                 1.7534
 IR Inten    --     28.8628               536.0264                22.5230

                     52                     53                     54
                      A                      A                      A
 Frequencies --   1088.5384              1097.6767              1108.1827
 Red. masses --      2.4355                 2.9311                 2.7191
 Frc consts  --      1.7003                 2.0808                 1.9674
 IR Inten    --     61.2374                20.2667                61.7233

                     55                     56                     57
                      A                      A                      A
 Frequencies --   1116.8158              1124.8633              1137.6053
 Red. masses --      4.1156                 2.4757                 1.2757
 Frc consts  --      3.0244                 1.8457                 0.9727
 IR Inten    --     31.2616                15.3544                17.6161

                     58                     59                     60
                      A                      A                      A
 Frequencies --   1145.8113              1157.7934              1170.2421
 Red. masses --      5.4580                 1.7672                 3.6997
 Frc consts  --      4.2219                 1.3957                 2.9852
 IR Inten    --    150.1717                13.8837               440.8191

                     61                     62                     63
                      A                      A                      A
 Frequencies --   1181.2729              1199.8463              1206.0016
 Red. masses --      2.7881                 2.5571                 1.3275
 Frc consts  --      2.2922                 2.1690                 1.1376
 IR Inten    --     51.6516                50.2150                33.3856

                     64                     65                     66
                      A                      A                      A
 Frequencies --   1219.0607              1242.5924              1259.2915
 Red. masses --      1.5143                 1.3255                 1.2913
 Frc consts  --      1.3259                 1.2058                 1.2065
 IR Inten    --      2.3606                19.8075                 9.9527

                     67                     68                     69
                      A                      A                      A
 Frequencies --   1279.6244              1294.6056              1303.0142
 Red. masses --      1.4581                 1.5720                13.0214
 Frc consts  --      1.4067                 1.5523                13.0258
 IR Inten    --      3.9707                14.6498               535.4286

                     70                     71                     72
                      A                      A                      A
 Frequencies --   1318.1810              1323.7025              1328.1926
 Red. masses --      1.2942                 1.3271                 1.2618
 Frc consts  --      1.3250                 1.3701                 1.3115
 IR Inten    --      8.4146                 6.2399                 0.7837

                     73                     74                     75
                      A                      A                      A
 Frequencies --   1338.7908              1343.8699              1360.2573
 Red. masses --      7.3497                 1.3170                 1.5010
 Frc consts  --      7.7615                 1.4014                 1.6363
 IR Inten    --      2.0562                 2.8491                 8.0079

                     76                     77                     78
                      A                      A                      A
 Frequencies --   1374.1468              1378.7485              1424.5546
 Red. masses --      1.3391                 1.3696                 1.5511
 Frc consts  --      1.4898                 1.5339                 1.8546
 IR Inten    --      3.1228                38.2774                 3.4833

                     79                     80                     81
                      A                      A                      A
 Frequencies --   1430.4492              1441.3225              1461.8811
 Red. masses --      1.6347                 3.1862                 1.2770
 Frc consts  --      1.9708                 3.8999                 1.6080
 IR Inten    --     16.3574                57.4354                10.1377

                     82                     83                     84
                      A                      A                      A
 Frequencies --   1469.1079              1493.3597              1501.8197
 Red. masses --      1.2464                 1.0437                 1.0969
 Frc consts  --      1.5849                 1.3714                 1.4576
 IR Inten    --      0.8698                13.7906                 5.4941

                     85                     86                     87
                      A                      A                      A
 Frequencies --   1506.7030              1508.9857              1520.0759
 Red. masses --      1.1007                 1.0545                 2.2703
 Frc consts  --      1.4723                 1.4147                 3.0907
 IR Inten    --      6.9989                21.1022                37.8393

                     88                     89                     90
                      A                      A                      A
 Frequencies --   1655.4452              1658.5497              3004.8342
 Red. masses --      6.3098                 7.7833                 1.0828
 Frc consts  --     10.1881                12.6146                 5.7602
 IR Inten    --    107.5948                10.6523                93.0145

                     91                     92                     93
                      A                      A                      A
 Frequencies --   3029.8542              3059.9359              3063.5875
 Red. masses --      1.0500                 1.0675                 1.0680
 Frc consts  --      5.6792                 5.8888                 5.9060
 IR Inten    --    102.6104                86.5034                45.6038

                     94                     95                     96
                      A                      A                      A
 Frequencies --   3122.5839              3122.6767              3139.0444
 Red. masses --      1.0872                 1.0872                 1.0869
 Frc consts  --      6.2458                 6.2463                 6.3103
 IR Inten    --     56.9998                19.9137                15.4937

                     97                     98                     99
                      A                      A                      A
 Frequencies --   3151.7423              3169.1635              3169.8328
 Red. masses --      1.0885                 1.0997                 1.1025
 Frc consts  --      6.3707                 6.5078                 6.5267
 IR Inten    --     35.6600                22.8223                42.5273

                    100                    101                    102
                      A                      A                      A
 Frequencies --   3181.6678              3245.7837              3247.5891
 Red. masses --      1.1002                 1.0912                 1.0910
 Frc consts  --      6.5621                 6.7734                 6.7794
 IR Inten    --     14.7753                 5.4665                 3.9285

                    103                    104                    105
                      A                      A                      A
 Frequencies --   3256.8951              3258.8401              3536.1889
 Red. masses --      1.0969                 1.0975                 1.0749
 Frc consts  --      6.8551                 6.8670                 7.9193
 IR Inten    --      7.2828                 2.3611                16.1864

 - Thermochemistry -
 -------------------
 Temperature   298.150 Kelvin.  Pressure   1.00000 Atm.
 Atom     1 has atomic number 35 and mass  78.91834

 Molecular mass:   376.99326 amu.
 Principal axes and moments of inertia in atomic units:
                           1         2         3
     Eigenvalues --  3364.57306********************
           X            0.99975  -0.02212   0.00270
           Y            0.02214   0.99972  -0.00776
           Z           -0.00253   0.00782   0.99997
 This molecule is an asymmetric top.
 Rotational symmetry number  1.
 Warning -- assumption of classical behavior for rotation
           may cause significant error
 Rotational temperatures (Kelvin)      0.02574     0.00393     0.00360
 Rotational constants (GHZ):           0.53640     0.08199     0.07511
 Zero-point vibrational energy     767426.6 (Joules/Mol)
                                  183.41935 (Kcal/Mol)
 Warning -- explicit consideration of  30 degrees of freedom as
           vibrations may cause significant error
 Vibrational temperatures:     19.30    38.76    43.10    49.67    97.85
          (Kelvin)            117.09   161.18   202.07   214.18   240.43
                              273.19   301.51   319.28   332.30   375.10
                              386.69   453.74   496.82   542.09   572.61
                              596.41   607.22   611.50   668.93   707.61
                              714.92   742.46   813.50   851.37   878.19
                              897.12   908.45   991.80  1102.88  1163.52
                             1179.73  1199.78  1209.24  1238.41  1249.89
                             1265.15  1316.90  1363.88  1416.81  1444.36
                             1468.30  1471.73  1477.05  1484.25  1548.99
                             1555.62  1566.16  1579.31  1594.43  1606.85
                             1618.43  1636.76  1648.57  1665.81  1683.72
                             1699.59  1726.31  1735.17  1753.96  1787.81
                             1811.84  1841.09  1862.65  1874.75  1896.57
                             1904.51  1910.97  1926.22  1933.53  1957.11
                             1977.09  1983.71  2049.62  2058.10  2073.74
                             2103.32  2113.72  2148.61  2160.78  2167.81
                             2171.09  2187.05  2381.82  2386.28  4323.29
                             4359.28  4402.57  4407.82  4492.70  4492.84
                             4516.38  4534.65  4559.72  4560.68  4577.71
                             4669.96  4672.56  4685.95  4688.74  5087.79

 Zero-point correction=                           0.292297 (Hartree/Particle)
 Thermal correction to Energy=                    0.311459
 Thermal correction to Enthalpy=                  0.312403
 Thermal correction to Gibbs Free Energy=         0.240682
 Sum of electronic and zero-point Energies=          -3905.148485
 Sum of electronic and thermal Energies=             -3905.129323
 Sum of electronic and thermal Enthalpies=           -3905.128379
 Sum of electronic and thermal Free Energies=        -3905.200100

                     E (Thermal)             CV                S
                      KCal/Mol        Cal/Mol-Kelvin    Cal/Mol-Kelvin
 Total                  195.443             72.082            150.948
 Electronic               0.000              0.000              0.000
 Translational            0.889              2.981             43.674
 Rotational               0.889              2.981             35.830
 Vibrational            193.666             66.120             71.445
 Vibration     1          0.593              1.987              7.427
 Vibration     2          0.593              1.984              6.043
 Vibration     3          0.594              1.984              5.832
 Vibration     4          0.594              1.983              5.551
 Vibration     5          0.598              1.969              4.210
 Vibration     6          0.600              1.962              3.857
 Vibration     7          0.607              1.940              3.233
 Vibration     8          0.615              1.913              2.798
 Vibration     9          0.618              1.904              2.687
 Vibration    10          0.624              1.883              2.468
 Vibration    11          0.633              1.854              2.229
 Vibration    12          0.642              1.826              2.048
 Vibration    13          0.648              1.808              1.943
 Vibration    14          0.653              1.794              1.871
 Vibration    15          0.669              1.745              1.657
 Vibration    16          0.673              1.731              1.604
 Vibration    17          0.703              1.644              1.334
 Vibration    18          0.724              1.585              1.188
 Vibration    19          0.747              1.520              1.052
 Vibration    20          0.764              1.474              0.970
 Vibration    21          0.778              1.439              0.911
 Vibration    22          0.784              1.422              0.885
 Vibration    23          0.787              1.416              0.875
 Vibration    24          0.822              1.328              0.752
 Vibration    25          0.848              1.268              0.679
 Vibration    26          0.852              1.257              0.666
 Vibration    27          0.871              1.214              0.619
 Vibration    28          0.921              1.106              0.513
 Vibration    29          0.949              1.049              0.464
 Vibration    30          0.969              1.010              0.432

                           ! Non-Optimized Parameters !
 Normal termination of Gaussian 16 at Sat Jul 29 14:24:17 2023.
