 Gaussian 16, Revision A.03,
 Gaussian 16:  ES64L-G16RevA.03 25-Dec-2016

 -------------------------------------------------------
 #P M062X/6-31+G(d,p) Opt Freq SCRF=(SMD, Solvent=Water)
 -------------------------------------------------------

 ----------------
 2-20_charged_pka
 ----------------
 Symbolic Z-matrix:
 Charge =  1 Multiplicity = 1

 SCF Done:  E(RM062X) =  -3905.79872222     A.U. after   16 cycles
 SCF Done:  E(RM062X) =  -3905.85306739     A.U. after   16 cycles
 SCF Done:  E(RM062X) =  -3905.87082569     A.U. after   16 cycles
 SCF Done:  E(RM062X) =  -3905.89362521     A.U. after   17 cycles
 SCF Done:  E(RM062X) =  -3905.89752633     A.U. after   16 cycles
 SCF Done:  E(RM062X) =  -3905.89932383     A.U. after   16 cycles
 SCF Done:  E(RM062X) =  -3905.89973447     A.U. after   16 cycles
 SCF Done:  E(RM062X) =  -3905.89985548     A.U. after   16 cycles
 SCF Done:  E(RM062X) =  -3905.90035338     A.U. after   15 cycles
 SCF Done:  E(RM062X) =  -3905.90045795     A.U. after   16 cycles
 SCF Done:  E(RM062X) =  -3905.90060332     A.U. after   14 cycles
 SCF Done:  E(RM062X) =  -3905.90062582     A.U. after   15 cycles
 SCF Done:  E(RM062X) =  -3905.90062481     A.U. after   15 cycles
 SCF Done:  E(RM062X) =  -3905.90063198     A.U. after   15 cycles
 SCF Done:  E(RM062X) =  -3905.90063228     A.U. after   11 cycles
 SCF Done:  E(RM062X) =  -3905.90063300     A.U. after   11 cycles
 SCF Done:  E(RM062X) =  -3905.90063475     A.U. after   14 cycles
 SCF Done:  E(RM062X) =  -3905.90063489     A.U. after   11 cycles
 SCF Done:  E(RM062X) =  -3905.90063500     A.U. after    8 cycles
 Optimization completed.
    -- Stationary point found.
 Normal termination of Gaussian 16 at Tue Aug  8 23:11:30 2023.

 ----------------------------------------------------------------------
 #P Geom=AllCheck Guess=TCheck SCRF=Check GenChk RM062X/6-31+G(d,p) Fre
 q
 ----------------------------------------------------------------------

 Structure from the checkpoint file:  "/home/ch/tchem07/g16/2-20_charged_pka.chk"
 ----------------
 2-20_charged_pka
 ----------------
 Charge =  1 Multiplicity = 1

                         Standard orientation:
 ---------------------------------------------------------------------
 Center     Atomic      Atomic             Coordinates (Angstroms)
 Number     Number       Type             X           Y           Z
 ---------------------------------------------------------------------
      1          6           0        6.710091    2.130794   -0.543400
      2          7           0        5.862411    0.903172   -0.573338
      3          6           0        4.928044    0.785535    0.593266
      4          6           0        3.692264    1.647766    0.396560
      5          8           0        2.831601    0.866084   -0.442125
      6          6           0        3.088098   -0.524652   -0.258716
      7          6           0        4.329303   -0.623597    0.645215
      8          8           0        3.861759   -0.899316    1.966667
      9          6           0        2.434063   -0.866647    2.017626
     10          6           0        2.013639   -1.206423    0.594938
     11          8           0        0.685677   -0.693026    0.381863
     12         16           0       -0.069969   -1.156937   -0.964966
     13          8           0        0.476680   -0.408746   -2.089003
     14          8           0       -0.044589   -2.612892   -1.029217
     15          6           0       -1.689586   -0.583310   -0.579132
     16          6           0       -2.563350   -1.448873    0.073457
     17          6           0       -3.841315   -0.995946    0.378969
     18          6           0       -4.197646    0.303644    0.025710
     19         35           0       -5.927767    0.921177    0.454439
     20          6           0       -3.319675    1.165453   -0.627299
     21          6           0       -2.041474    0.715106   -0.937104
     22          1           0        7.340027    2.127928   -1.430813
     23          1           0        6.064100    3.006593   -0.541351
     24          1           0        7.317535    2.098344    0.359386
     25          1           0        6.479138    0.082497   -0.592034
     26          1           0        5.326518    0.883819   -1.450906
     27          1           0        5.498227    1.020665    1.492267
     28          1           0        3.875917    2.599298   -0.106119
     29          1           0        3.225379    1.839773    1.368199
     30          1           0        3.216426   -0.989692   -1.237797
     31          1           0        5.038074   -1.402356    0.353375
     32          1           0        2.068041    0.129140    2.295511
     33          1           0        2.102201   -1.600409    2.752110
     34          1           0        2.024195   -2.286723    0.425924
     35          1           0       -2.261357   -2.457745    0.334756
     36          1           0       -4.543266   -1.649775    0.883790
     37          1           0       -3.620554    2.172057   -0.894365
     38          1           0       -1.339893    1.364271   -1.450481
 ---------------------------------------------------------------------

 SCF Done:  E(RM062X) =  -3905.90063500     A.U. after    2 cycles

 The electronic state is 1-A.
 Alpha  occ. eigenvalues -- -485.49775 -90.20464 -62.77823 -57.30895 -57.30629
 Alpha  occ. eigenvalues --  -57.30595 -19.72377 -19.67627 -19.67590 -19.67511
 Alpha  occ. eigenvalues --  -19.67460 -14.88217 -10.63751 -10.63331 -10.62680
 Alpha  occ. eigenvalues --  -10.62053 -10.61946 -10.61368 -10.61211 -10.60837
 Alpha  occ. eigenvalues --  -10.59531 -10.59368 -10.59359 -10.58560 -10.58559
 Alpha  occ. eigenvalues --   -8.94829  -8.51301  -6.90204  -6.89192  -6.89150
 Alpha  occ. eigenvalues --   -6.43575  -6.43441  -6.43331  -2.93056  -2.92702
 Alpha  occ. eigenvalues --   -2.92669  -2.91768  -2.91768  -1.30136  -1.21075
 Alpha  occ. eigenvalues --   -1.18901  -1.17535  -1.16012  -1.11837  -1.01105
 Alpha  occ. eigenvalues --   -0.93831  -0.91243  -0.90187  -0.88134  -0.86116
 Alpha  occ. eigenvalues --   -0.84508  -0.80750  -0.77863  -0.73280  -0.72987
 Alpha  occ. eigenvalues --   -0.71127  -0.70349  -0.68329  -0.66053  -0.65414
 Alpha  occ. eigenvalues --   -0.63695  -0.62037  -0.61124  -0.59488  -0.58897
 Alpha  occ. eigenvalues --   -0.56890  -0.56270  -0.55410  -0.54530  -0.53599
 Alpha  occ. eigenvalues --   -0.53378  -0.52864  -0.52098  -0.51264  -0.50415
 Alpha  occ. eigenvalues --   -0.48777  -0.47932  -0.47462  -0.47141  -0.46317
 Alpha  occ. eigenvalues --   -0.45939  -0.45540  -0.45020  -0.44198  -0.43073
 Alpha  occ. eigenvalues --   -0.42389  -0.42242  -0.41111  -0.40149  -0.39698
 Alpha  occ. eigenvalues --   -0.38962  -0.36142  -0.35312  -0.34875  -0.33930
 Alpha  occ. eigenvalues --   -0.31922
 Alpha virt. eigenvalues --   -0.03281  -0.00839   0.00496   0.01195   0.01361
 Alpha virt. eigenvalues --    0.02496   0.02560   0.02973   0.03479   0.03686
 Alpha virt. eigenvalues --    0.04229   0.04356   0.04826   0.04964   0.05177

 Mulliken charges:
               1
     1  C   -0.327828
     2  N   -0.587423
     3  C   -0.068830
     4  C   -0.054945
     5  O   -0.406618
     6  C    0.251832
     7  C   -0.263020
     8  O   -0.380008
     9  C   -0.118679
    10  C   -0.150785
    11  O   -0.403282
    12  S    0.837941
    13  O   -0.550920
    14  O   -0.524654
    15  C   -1.164234
    16  C    0.309234
    17  C   -0.188690
    18  C    0.148220
    19  Br   0.056107
    20  C   -0.205113
    21  C    0.449354
    22  H    0.223786
    23  H    0.222910
    24  H    0.226636
    25  H    0.463756
    26  H    0.476334
    27  H    0.257042
    28  H    0.211016
    29  H    0.209658
    30  H    0.232225
    31  H    0.229670
    32  H    0.198414
    33  H    0.212493
    34  H    0.242784
    35  H    0.239211
    36  H    0.227498
    37  H    0.227120
    38  H    0.241791
 Sum of Mulliken charges =   1.00000

 Dipole moment (field-independent basis, Debye):
    X=             27.3374    Y=              5.7453    Z=              1.1424  Tot=             27.9580
 Quadrupole moment (field-independent basis, Debye-Ang):
   XX=             42.7046   YY=           -127.5062   ZZ=           -145.4357
   XY=             31.5882   XZ=            -16.3389   YZ=             -8.5634

  Exact polarizability: 326.369 -16.481 272.480 -28.183 -15.529 227.202
 Approx polarizability: 270.653 -13.881 246.452 -23.719 -14.906 206.400

                      1                      2                      3
                      A                      A                      A
 Frequencies --      8.3787                17.8473                33.1183
 Red. masses --      6.0261                 3.8263                 8.2453
 Frc consts  --      0.0002                 0.0007                 0.0053
 IR Inten    --      9.5970                 1.9542                 2.3660

                      4                      5                      6
                      A                      A                      A
 Frequencies --     46.4904                65.9057               101.1547
 Red. masses --      6.0761                 4.6246                 3.9218
 Frc consts  --      0.0077                 0.0118                 0.0236
 IR Inten    --      8.6403                 5.8267                 2.1745

                      7                      8                      9
                      A                      A                      A
 Frequencies --    119.0438               131.9439               146.7661
 Red. masses --      7.5174                 3.0205                 4.9956
 Frc consts  --      0.0628                 0.0310                 0.0634
 IR Inten    --      7.8309                11.6281                12.6533

                     10                     11                     12
                      A                      A                      A
 Frequencies --    153.7069               194.9408               216.9520
 Red. masses --      4.5795                 3.1106                 3.3707
 Frc consts  --      0.0637                 0.0696                 0.0935
 IR Inten    --      0.8770                 2.9726                19.0069

                     13                     14                     15
                      A                      A                      A
 Frequencies --    225.3749               237.1767               254.2244
 Red. masses --      6.5678                 5.4838                 1.6534
 Frc consts  --      0.1966                 0.1818                 0.0630
 IR Inten    --      1.5659                19.6811                 7.1909

                     16                     17                     18
                      A                      A                      A
 Frequencies --    266.8475               309.6069               339.7879
 Red. masses --      7.2247                 4.6489                 4.6250
 Frc consts  --      0.3031                 0.2626                 0.3146
 IR Inten    --      1.4669                 3.0839                11.9648

                     19                     20                     21
                      A                      A                      A
 Frequencies --    350.7953               368.9356               375.5946
 Red. masses --      2.9005                 5.0169                 6.1778
 Frc consts  --      0.2103                 0.4023                 0.5135
 IR Inten    --     10.5352                 7.6263                 8.3271

                     22                     23                     24
                      A                      A                      A
 Frequencies --    419.9181               425.4884               485.7354
 Red. masses --      2.8329                 9.0440                 3.1216
 Frc consts  --      0.2943                 0.9647                 0.4339
 IR Inten    --      0.1709                53.7040                 1.4020

                     25                     26                     27
                      A                      A                      A
 Frequencies --    491.0598               501.1720               519.1125
 Red. masses --      5.6774                 5.5084                 5.9235
 Frc consts  --      0.8066                 0.8152                 0.9405
 IR Inten    --     33.9766                 6.1815                24.9741

                     28                     29                     30
                      A                      A                      A
 Frequencies --    570.8118               617.0587               631.2324
 Red. masses --      4.5210                 6.2196                 7.1019
 Frc consts  --      0.8679                 1.3953                 1.6673
 IR Inten    --    141.2638                50.8172                 0.2531

                     31                     32                     33
                      A                      A                      A
 Frequencies --    640.3549               678.7250               747.0125
 Red. masses --      8.2204                 3.2419                 2.6870
 Frc consts  --      1.9860                 0.8799                 0.8834
 IR Inten    --    170.5044                23.7545                 5.0117

                     34                     35                     36
                      A                      A                      A
 Frequencies --    763.7444               813.4287               829.2183
 Red. masses --      7.9022                 2.7544                 7.0037
 Frc consts  --      2.7158                 1.0738                 2.8374
 IR Inten    --    108.2502                70.0228               332.7402

                     37                     38                     39
                      A                      A                      A
 Frequencies --    835.3379               859.7246               863.6918
 Red. masses --      1.9280                 1.2480                 4.6695
 Frc consts  --      0.7927                 0.5435                 2.0523
 IR Inten    --     27.3340                 0.3776               132.9013

                     40                     41                     42
                      A                      A                      A
 Frequencies --    866.1964               867.6604               886.2290
 Red. masses --      3.5326                 1.7917                 1.8775
 Frc consts  --      1.5616                 0.7947                 0.8688
 IR Inten    --     29.8809                56.1571                16.2966

                     43                     44                     45
                      A                      A                      A
 Frequencies --    918.4338               960.9877               970.0657
 Red. masses --      2.2939                 2.8852                 2.3915
 Frc consts  --      1.1400                 1.5698                 1.3260
 IR Inten    --    127.2129                33.3622                 2.5631

                     46                     47                     48
                      A                      A                      A
 Frequencies --   1009.4401              1020.2319              1022.3429
 Red. masses --      2.5156                 4.1051                 1.4446
 Frc consts  --      1.5103                 2.5175                 0.8896
 IR Inten    --      9.2120                46.0079                 2.4838

                     49                     50                     51
                      A                      A                      A
 Frequencies --   1025.1659              1038.2933              1044.8949
 Red. masses --      1.6981                 1.6358                 2.3036
 Frc consts  --      1.0515                 1.0390                 1.4819
 IR Inten    --      6.0367               160.6792                17.2951

                     52                     53                     54
                      A                      A                      A
 Frequencies --   1077.5176              1087.9217              1090.7235
 Red. masses --      2.2860                 4.0683                 1.7072
 Frc consts  --      1.5638                 2.8370                 1.1966
 IR Inten    --     23.0621               397.7916                19.5967

                     55                     56                     57
                      A                      A                      A
 Frequencies --   1108.8682              1116.4273              1132.8141
 Red. masses --      2.9097                 3.9844                 3.7186
 Frc consts  --      2.1079                 2.9260                 2.8115
 IR Inten    --     52.2982                90.3217                67.4077

                     58                     59                     60
                      A                      A                      A
 Frequencies --   1139.4578              1157.6044              1170.0297
 Red. masses --      1.2789                 1.8327                 3.9158
 Frc consts  --      0.9784                 1.4470                 3.1584
 IR Inten    --     19.4560                 3.6950               231.3449

                     61                     62                     63
                      A                      A                      A
 Frequencies --   1176.1451              1178.9475              1193.3973
 Red. masses --      3.1801                 2.1525                 1.8816
 Frc consts  --      2.5919                 1.7627                 1.5789
 IR Inten    --    212.1858               171.9746                61.6677

                     64                     65                     66
                      A                      A                      A
 Frequencies --   1208.4129              1235.7539              1262.5300
 Red. masses --      1.3163                 1.2567                 1.3324
 Frc consts  --      1.1325                 1.1307                 1.2513
 IR Inten    --     39.7338                16.7048                 5.5187

                     67                     68                     69
                      A                      A                      A
 Frequencies --   1284.9518              1295.5263              1303.8770
 Red. masses --      1.4195                 1.7726                12.2859
 Frc consts  --      1.3809                 1.7529                12.3063
 IR Inten    --      0.0954                 8.8851               550.0716

                     70                     71                     72
                      A                      A                      A
 Frequencies --   1323.6768              1325.2461              1338.1837
 Red. masses --      1.4888                 1.3886                 6.1962
 Frc consts  --      1.5369                 1.4368                 6.5374
 IR Inten    --      5.4894                 6.1365                 1.6084

                     73                     74                     75
                      A                      A                      A
 Frequencies --   1345.6529              1352.1926              1357.0148
 Red. masses --      1.2210                 1.3619                 1.3968
 Frc consts  --      1.3026                 1.4671                 1.5155
 IR Inten    --      6.5570                18.2230                 2.5335

                     76                     77                     78
                      A                      A                      A
 Frequencies --   1364.3867              1384.3753              1406.5781
 Red. masses --      1.2467                 1.3545                 1.3233
 Frc consts  --      1.3674                 1.5295                 1.5425
 IR Inten    --     11.3784                 5.0731                 0.7818

                     79                     80                     81
                      A                      A                      A
 Frequencies --   1427.3871              1439.5072              1441.4725
 Red. masses --      1.5136                 1.3197                 3.1618
 Frc consts  --      1.8169                 1.6112                 3.8708
 IR Inten    --      3.4501                76.4516                57.4204

                     82                     83                     84
                      A                      A                      A
 Frequencies --   1454.9348              1470.6319              1494.9912
 Red. masses --      1.3095                 1.1697                 1.0548
 Frc consts  --      1.6332                 1.4905                 1.3889
 IR Inten    --     17.8038                18.1919                49.7289

                     85                     86                     87
                      A                      A                      A
 Frequencies --   1502.5531              1521.0319              1522.3847
 Red. masses --      1.0568                 2.2582                 1.0839
 Frc consts  --      1.4057                 3.0781                 1.4801
 IR Inten    --      9.3414                37.2617                19.1212

                     88                     89                     90
                      A                      A                      A
 Frequencies --   1540.4841              1589.7089              1655.1690
 Red. masses --      1.0833                 1.0730                 6.2820
 Frc consts  --      1.5147                 1.5976                10.1400
 IR Inten    --     24.1380               122.5128               109.4310

                     91                     92                     93
                      A                      A                      A
 Frequencies --   1657.6860              3084.8611              3105.7075
 Red. masses --      7.7609                 1.0668                 1.0641
 Frc consts  --     12.5652                 5.9815                 6.0469
 IR Inten    --     10.0668                40.5614                36.9191

                     94                     95                     96
                      A                      A                      A
 Frequencies --   3129.9114              3137.2886              3138.0571
 Red. masses --      1.0310                 1.0866                 1.0898
 Frc consts  --      5.9508                 6.3013                 6.3230
 IR Inten    --      6.6675                11.4798                10.3401

                     97                     98                     99
                      A                      A                      A
 Frequencies --   3157.3405              3176.4707              3182.8332
 Red. masses --      1.0894                 1.1045                 1.1023
 Frc consts  --      6.3985                 6.5661                 6.5795
 IR Inten    --     15.6123                12.4703                15.3580

                    100                    101                    102
                      A                      A                      A
 Frequencies --   3184.7785              3236.2390              3240.5079
 Red. masses --      1.0899                 1.1102                 1.1094
 Frc consts  --      6.5132                 6.8509                 6.8639
 IR Inten    --      0.6749                 1.2950                 1.0379

                    103                    104                    105
                      A                      A                      A
 Frequencies --   3245.1349              3246.2240              3256.5948
 Red. masses --      1.0916                 1.0911                 1.0969
 Frc consts  --      6.7727                 6.7744                 6.8539
 IR Inten    --      6.8321                 3.5011                 7.8719

                    106                    107                    108
                      A                      A                      A
 Frequencies --   3258.5150              3424.1337              3480.3302
 Red. masses --      1.0971                 1.0556                 1.0952
 Frc consts  --      6.8633                 7.2923                 7.8163
 IR Inten    --      2.4450               125.7742               201.7918

 - Thermochemistry -
 -------------------
 Temperature   298.150 Kelvin.  Pressure   1.00000 Atm.
 Atom     1 has atomic number  6 and mass  12.00000

 Molecular mass:   378.00108 amu.
 Principal axes and moments of inertia in atomic units:
                           1         2         3
     Eigenvalues --  2984.14701********************
           X            0.99980   0.01980   0.00244
           Y           -0.01955   0.99672  -0.07857
           Z           -0.00398   0.07851   0.99691
 This molecule is an asymmetric top.
 Rotational symmetry number  1.
 Warning -- assumption of classical behavior for rotation
           may cause significant error
 Rotational temperatures (Kelvin)      0.02902     0.00377     0.00366
 Rotational constants (GHZ):           0.60478     0.07861     0.07630
 Zero-point vibrational energy     808128.0 (Joules/Mol)
                                  193.14722 (Kcal/Mol)
 Warning -- explicit consideration of  29 degrees of freedom as
           vibrations may cause significant error
 Vibrational temperatures:     12.06    25.68    47.65    66.89    94.82
          (Kelvin)            145.54   171.28   189.84   211.16   221.15
                              280.48   312.15   324.26   341.24   365.77
                              383.93   445.46   488.88   504.72   530.82
                              540.40   604.17   612.18   698.86   706.53
                              721.07   746.89   821.27   887.81   908.20
                              921.33   976.53  1074.78  1098.86  1170.34
                             1193.06  1201.86  1236.95  1242.66  1246.26
                             1248.37  1275.09  1321.42  1382.65  1395.71
                             1452.36  1467.89  1470.92  1474.99  1493.87
                             1503.37  1550.31  1565.28  1569.31  1595.41
                             1606.29  1629.87  1639.43  1665.53  1683.41
                             1692.21  1696.24  1717.03  1738.64  1777.97
                             1816.50  1848.76  1863.97  1875.99  1904.48
                             1906.73  1925.35  1936.09  1945.50  1952.44
                             1963.05  1991.81  2023.75  2053.69  2071.13
                             2073.96  2093.33  2115.91  2150.96  2161.84
                             2188.43  2190.37  2216.41  2287.24  2381.42
                             2385.04  4438.43  4468.42  4503.24  4513.86
                             4514.96  4542.71  4570.23  4579.39  4582.19
                             4656.23  4662.37  4669.03  4670.59  4685.51
                             4688.28  4926.56  5007.42

 Zero-point correction=                           0.307800 (Hartree/Particle)
 Thermal correction to Energy=                    0.326986
 Thermal correction to Enthalpy=                  0.327930
 Thermal correction to Gibbs Free Energy=         0.255828
 Sum of electronic and zero-point Energies=          -3905.592835
 Sum of electronic and thermal Energies=             -3905.573649
 Sum of electronic and thermal Enthalpies=           -3905.572705
 Sum of electronic and thermal Free Energies=        -3905.644807

                     E (Thermal)             CV                S
                      KCal/Mol        Cal/Mol-Kelvin    Cal/Mol-Kelvin
 Total                  205.187             72.311            151.751
 Electronic               0.000              0.000              0.000
 Translational            0.889              2.981             43.682
 Rotational               0.889              2.981             35.737
 Vibrational            203.409             66.350             72.333
 Vibration     1          0.593              1.987              8.362
 Vibration     2          0.593              1.986              6.860
 Vibration     3          0.594              1.983              5.633
 Vibration     4          0.595              1.979              4.961
 Vibration     5          0.597              1.971              4.272
 Vibration     6          0.604              1.948              3.432
 Vibration     7          0.609              1.933              3.116
 Vibration     8          0.612              1.921              2.918
 Vibration     9          0.617              1.906              2.714
 Vibration    10          0.619              1.899              2.626
 Vibration    11          0.636              1.847              2.180
 Vibration    12          0.646              1.815              1.984
 Vibration    13          0.650              1.802              1.915
 Vibration    14          0.656              1.784              1.824
 Vibration    15          0.665              1.756              1.701
 Vibration    16          0.672              1.734              1.617
 Vibration    17          0.699              1.655              1.364
 Vibration    18          0.720              1.596              1.213
 Vibration    19          0.728              1.574              1.163
 Vibration    20          0.741              1.536              1.084
 Vibration    21          0.746              1.522              1.057
 Vibration    22          0.783              1.427              0.892
 Vibration    23          0.787              1.415              0.874
 Vibration    24          0.842              1.282              0.695
 Vibration    25          0.847              1.270              0.681
 Vibration    26          0.857              1.247              0.655
 Vibration    27          0.874              1.208              0.612
 Vibration    28          0.927              1.094              0.503
 Vibration    29          0.977              0.996              0.421

                           ! Non-Optimized Parameters !
 Normal termination of Gaussian 16 at Wed Aug  9 07:22:59 2023.
