 Gaussian 16, Revision A.03,
 Gaussian 16:  ES64L-G16RevA.03 25-Dec-2016

 -------------------------------------------------------
 #P M062X/6-31+G(d,p) Opt Freq SCRF=(SMD, Solvent=Water)
 -------------------------------------------------------

 ---------------
 2-3_neutral_pka
 ---------------
 Symbolic Z-matrix:
 Charge =  0 Multiplicity = 1

 SCF Done:  E(RM062X) =  -829.380020657     A.U. after   15 cycles
 SCF Done:  E(RM062X) =  -829.415214026     A.U. after   14 cycles
 SCF Done:  E(RM062X) =  -829.424697970     A.U. after   14 cycles
 SCF Done:  E(RM062X) =  -829.436163553     A.U. after   14 cycles
 SCF Done:  E(RM062X) =  -829.437616656     A.U. after   13 cycles
 SCF Done:  E(RM062X) =  -829.437883948     A.U. after   13 cycles
 SCF Done:  E(RM062X) =  -829.437957259     A.U. after   13 cycles
 SCF Done:  E(RM062X) =  -829.438053474     A.U. after   11 cycles
 SCF Done:  E(RM062X) =  -829.438076152     A.U. after   10 cycles
 SCF Done:  E(RM062X) =  -829.438085250     A.U. after   10 cycles
 SCF Done:  E(RM062X) =  -829.438087800     A.U. after   10 cycles
 SCF Done:  E(RM062X) =  -829.438088913     A.U. after   10 cycles
 SCF Done:  E(RM062X) =  -829.438089111     A.U. after    9 cycles
 SCF Done:  E(RM062X) =  -829.438089170     A.U. after    8 cycles
 SCF Done:  E(RM062X) =  -829.438089239     A.U. after    8 cycles
 SCF Done:  E(RM062X) =  -829.438089274     A.U. after    7 cycles
 Optimization completed.
    -- Stationary point found.
 Normal termination of Gaussian 16 at Thu Jul 27 12:39:07 2023.

 ----------------------------------------------------------------------
 #P Geom=AllCheck Guess=TCheck SCRF=Check GenChk RM062X/6-31+G(d,p) Fre
 q
 ----------------------------------------------------------------------

 Structure from the checkpoint file:  "/home/ch/tchem07/g16/2-3_neutral_pka.chk"
 ---------------
 2-3_neutral_pka
 ---------------
 Charge =  0 Multiplicity = 1

                         Standard orientation:
 ---------------------------------------------------------------------
 Center     Atomic      Atomic             Coordinates (Angstroms)
 Number     Number       Type             X           Y           Z
 ---------------------------------------------------------------------
      1          8           0       -4.181192    0.166621   -0.562545
      2          6           0       -2.823535   -0.181180   -0.327936
      3          6           0       -2.447938    0.058851    1.122994
      4          6           0       -0.969595    0.404826    1.159287
      5          6           0       -0.519092    0.350981   -0.323784
      6          6           0       -1.812250    0.718987   -1.064606
      7          6           0        0.803251    1.115066   -0.604645
      8          6           0        1.859932    0.062147   -0.242881
      9          6           0        1.273092   -1.215114   -0.275106
     10          6           0       -0.153783   -1.099416   -0.731716
     11          6           0       -1.175890   -2.129802   -0.266770
     12          6           0       -2.583190   -1.665223   -0.671982
     13          6           0        1.988818   -2.363395    0.038427
     14          6           0        3.336446   -2.231617    0.382638
     15          6           0        3.934900   -0.973709    0.380130
     16          6           0        3.222433    0.196353    0.061464
     17          6           0        3.966845    1.509794    0.048179
     18          6           0        0.966765    2.467190    0.087827
     19          7           0       -0.192133    3.340537   -0.145445
     20          6           0       -3.289797   -0.004658    2.153194
     21          1           0       -4.402715   -0.091707   -1.468941
     22          1           0       -0.395260   -0.269318    1.804923
     23          1           0       -0.849003    1.420691    1.547575
     24          1           0       -2.091186    1.765779   -0.913588
     25          1           0       -1.764661    0.504279   -2.138236
     26          1           0        0.850829    1.290121   -1.694065
     27          1           0       -0.144672   -1.113224   -1.835080
     28          1           0       -1.120920   -2.247479    0.822636
     29          1           0       -0.964118   -3.110667   -0.704287
     30          1           0       -2.722573   -1.786656   -1.755107
     31          1           0       -3.346407   -2.263209   -0.161854
     32          1           0        1.512126   -3.340003    0.013889
     33          1           0        3.923753   -3.107748    0.641608
     34          1           0        4.989464   -0.885116    0.629598
     35          1           0        5.040270    1.329806    0.145528
     36          1           0        3.797558    2.056381   -0.884407
     37          1           0        3.660763    2.160419    0.872964
     38          1           0        1.891056    2.930281   -0.268638
     39          1           0        1.080795    2.318693    1.168495
     40          1           0        0.062298    4.289848    0.116232
     41          1           0       -0.383225    3.368953   -1.145979
     42          1           0       -2.953200    0.182223    3.170057
     43          1           0       -4.340963   -0.239567    2.006863
 ---------------------------------------------------------------------

 SCF Done:  E(RM062X) =  -829.438089274     A.U. after    2 cycles

 The electronic state is 1-A.
 Alpha  occ. eigenvalues --  -19.65052 -14.73784 -10.60095 -10.56014 -10.56007
 Alpha  occ. eigenvalues --  -10.55341 -10.55246 -10.55146 -10.55111 -10.54867
 Alpha  occ. eigenvalues --  -10.54812 -10.54546 -10.54454 -10.54293 -10.53939
 Alpha  occ. eigenvalues --  -10.53825 -10.53688 -10.53407 -10.53191 -10.53142
 Alpha  occ. eigenvalues --   -1.15165  -0.99775  -0.97535  -0.95443  -0.89846
 Alpha  occ. eigenvalues --   -0.87991  -0.86150  -0.83678  -0.80649  -0.79773
 Alpha  occ. eigenvalues --   -0.77048  -0.76035  -0.71347  -0.70463  -0.67656
 Alpha  occ. eigenvalues --   -0.64989  -0.64033  -0.61138  -0.60515  -0.57352
 Alpha  occ. eigenvalues --   -0.56567  -0.54647  -0.53917  -0.53406  -0.52024
 Alpha  occ. eigenvalues --   -0.51107  -0.50533  -0.50419  -0.48681  -0.48393
 Alpha  occ. eigenvalues --   -0.47995  -0.47294  -0.46218  -0.45514  -0.45142
 Alpha  occ. eigenvalues --   -0.44518  -0.43777  -0.42588  -0.42357  -0.41407
 Alpha  occ. eigenvalues --   -0.41108  -0.39520  -0.39320  -0.37891  -0.37032
 Alpha  occ. eigenvalues --   -0.36973  -0.36044  -0.35047  -0.33573  -0.30126
 Alpha  occ. eigenvalues --   -0.29945  -0.29078  -0.28440
 Alpha virt. eigenvalues --    0.01498   0.02172   0.02391   0.02671   0.02859
 Alpha virt. eigenvalues --    0.03128   0.03337   0.04007   0.04171   0.04419
 Alpha virt. eigenvalues --    0.04896   0.05854   0.06123   0.06315   0.07050

 Mulliken charges:
               1
     1  O   -0.569932
     2  C   -0.598765
     3  C    0.587621
     4  C   -0.533300
     5  C   -0.495270
     6  C    0.001767
     7  C   -0.176015
     8  C    0.104603
     9  C   -0.072763
    10  C   -0.016995
    11  C   -0.412255
    12  C   -0.265599
    13  C    0.070562
    14  C   -0.295310
    15  C   -0.544059
    16  C    0.316801
    17  C   -0.612546
    18  C   -0.208787
    19  N   -0.748599
    20  C   -0.358027
    21  H    0.424492
    22  H    0.215517
    23  H    0.208109
    24  H    0.192578
    25  H    0.193857
    26  H    0.196122
    27  H    0.203805
    28  H    0.190941
    29  H    0.175612
    30  H    0.184960
    31  H    0.184265
    32  H    0.184044
    33  H    0.186158
    34  H    0.177428
    35  H    0.175745
    36  H    0.189503
    37  H    0.194479
    38  H    0.152136
    39  H    0.172248
    40  H    0.346743
    41  H    0.331977
    42  H    0.171549
    43  H    0.174600
 Sum of Mulliken charges =  -0.00000

 Dipole moment (field-independent basis, Debye):
    X=              3.3605    Y=              0.4984    Z=             -3.5842  Tot=              4.9384
 Quadrupole moment (field-independent basis, Debye-Ang):
   XX=           -130.2692   YY=           -110.1412   ZZ=           -117.0085
   XY=             12.7615   XZ=             11.1582   YZ=             -2.2616

  Exact polarizability: 343.646   0.375 315.353   6.007  -6.385 269.723
 Approx polarizability: 271.764   1.166 260.529   6.223  -5.331 224.996

                      1                      2                      3
                      A                      A                      A
 Frequencies --     52.2827                74.0846                96.9418
 Red. masses --      3.7834                 3.7218                 3.6921
 Frc consts  --      0.0061                 0.0120                 0.0204
 IR Inten    --      0.5868                 0.2917                 1.6451

                      4                      5                      6
                      A                      A                      A
 Frequencies --    145.9961               148.5831               191.6605
 Red. masses --      2.9552                 4.0238                 3.6480
 Frc consts  --      0.0371                 0.0523                 0.0790
 IR Inten    --      1.6117                 2.3670                 2.3800

                      7                      8                      9
                      A                      A                      A
 Frequencies --    202.6412               215.1676               240.1604
 Red. masses --      1.8921                 3.1150                 2.2548
 Frc consts  --      0.0458                 0.0850                 0.0766
 IR Inten    --      8.7708                 2.1759                39.1637

                     10                     11                     12
                      A                      A                      A
 Frequencies --    243.6179               262.4076               264.3202
 Red. masses --      1.1451                 1.4585                 1.4517
 Frc consts  --      0.0400                 0.0592                 0.0598
 IR Inten    --     70.4577                89.1683                14.3594

                     13                     14                     15
                      A                      A                      A
 Frequencies --    275.4790               280.5960               297.9651
 Red. masses --      2.1592                 2.1898                 3.0003
 Frc consts  --      0.0965                 0.1016                 0.1569
 IR Inten    --    102.6503                11.4814                10.4396

                     16                     17                     18
                      A                      A                      A
 Frequencies --    302.6567               335.7610               350.5353
 Red. masses --      2.7970                 3.2718                 4.9887
 Frc consts  --      0.1510                 0.2173                 0.3612
 IR Inten    --     10.4323                15.4699                 1.7662

                     19                     20                     21
                      A                      A                      A
 Frequencies --    388.6150               421.1697               424.3232
 Red. masses --      3.1272                 2.5228                 3.2417
 Frc consts  --      0.2783                 0.2637                 0.3439
 IR Inten    --     11.1531                 4.3557                 5.7158

                     22                     23                     24
                      A                      A                      A
 Frequencies --    470.8471               484.1284               503.0793
 Red. masses --      3.2975                 2.7210                 3.5901
 Frc consts  --      0.4307                 0.3758                 0.5353
 IR Inten    --      4.7382                 4.7336                 1.2215

                     25                     26                     27
                      A                      A                      A
 Frequencies --    521.3654               527.4914               548.0476
 Red. masses --      2.7897                 3.2962                 3.2754
 Frc consts  --      0.4468                 0.5404                 0.5796
 IR Inten    --      1.5602                 2.8127                14.7194

                     28                     29                     30
                      A                      A                      A
 Frequencies --    571.9826               598.3302               607.0576
 Red. masses --      3.0636                 4.8536                 2.6486
 Frc consts  --      0.5905                 1.0238                 0.5751
 IR Inten    --     15.3862                 3.1420                 1.9250

                     31                     32                     33
                      A                      A                      A
 Frequencies --    633.8781               659.8739               711.5804
 Red. masses --      3.2450                 4.3493                 2.6407
 Frc consts  --      0.7682                 1.1158                 0.7878
 IR Inten    --      2.5257                10.2516                 1.7697

                     34                     35                     36
                      A                      A                      A
 Frequencies --    731.6291               753.2894               759.0508
 Red. masses --      1.3642                 2.3547                 2.8771
 Frc consts  --      0.4302                 0.7872                 0.9767
 IR Inten    --      3.6295                 8.4008                16.2807

                     37                     38                     39
                      A                      A                      A
 Frequencies --    791.7081               807.9237               849.4819
 Red. masses --      2.1037                 1.7117                 2.5133
 Frc consts  --      0.7769                 0.6583                 1.0686
 IR Inten    --     32.5937                61.4443                56.3683

                     40                     41                     42
                      A                      A                      A
 Frequencies --    877.5035               881.3193               887.1124
 Red. masses --      1.8889                 2.6562                 1.6629
 Frc consts  --      0.8569                 1.2155                 0.7710
 IR Inten    --     24.4110                 3.6492                65.4340

                     43                     44                     45
                      A                      A                      A
 Frequencies --    909.6879               925.3622               929.8189
 Red. masses --      1.6298                 1.5277                 1.4019
 Frc consts  --      0.7946                 0.7707                 0.7141
 IR Inten    --     57.3872                36.8675                 7.6602

                     46                     47                     48
                      A                      A                      A
 Frequencies --    939.5901               964.9695               978.0252
 Red. masses --      1.6616                 1.9426                 1.6998
 Frc consts  --      0.8643                 1.0658                 0.9580
 IR Inten    --     51.7894                 3.0701                14.6322

                     49                     50                     51
                      A                      A                      A
 Frequencies --    986.5635               998.7842              1007.2529
 Red. masses --      1.8490                 1.9813                 1.3339
 Frc consts  --      1.0603                 1.1645                 0.7974
 IR Inten    --      8.0172                11.7525                 0.5808

                     52                     53                     54
                      A                      A                      A
 Frequencies --   1013.2463              1040.7751              1049.8975
 Red. masses --      1.9061                 2.1057                 1.6511
 Frc consts  --      1.1530                 1.3439                 1.0723
 IR Inten    --      2.9869                 1.7417                13.3127

                     55                     56                     57
                      A                      A                      A
 Frequencies --   1057.2820              1078.8494              1098.8228
 Red. masses --      1.5607                 1.7748                 1.9518
 Frc consts  --      1.0279                 1.2171                 1.3885
 IR Inten    --      6.4501                45.4603                40.5731

                     58                     59                     60
                      A                      A                      A
 Frequencies --   1105.7357              1118.4261              1130.6678
 Red. masses --      1.8663                 1.9527                 2.6285
 Frc consts  --      1.3444                 1.4392                 1.9799
 IR Inten    --      9.9033                 9.5307                18.7591

                     61                     62                     63
                      A                      A                      A
 Frequencies --   1145.4331              1150.2215              1167.2283
 Red. masses --      1.6530                 1.8691                 1.5102
 Frc consts  --      1.2778                 1.4570                 1.2123
 IR Inten    --     59.5793                 3.7235                53.5755

                     64                     65                     66
                      A                      A                      A
 Frequencies --   1174.0018              1182.1042              1197.2426
 Red. masses --      1.8714                 1.5317                 1.8824
 Frc consts  --      1.5197                 1.2611                 1.5898
 IR Inten    --     28.2385                 3.2584                12.7799

                     67                     68                     69
                      A                      A                      A
 Frequencies --   1207.1457              1219.8297              1240.2466
 Red. masses --      1.9319                 1.7769                 1.4681
 Frc consts  --      1.6586                 1.5578                 1.3305
 IR Inten    --      1.4128                 1.3173                12.6422

                     70                     71                     72
                      A                      A                      A
 Frequencies --   1242.8718              1253.6323              1272.8023
 Red. masses --      1.6764                 1.5705                 2.2239
 Frc consts  --      1.5258                 1.4542                 2.1227
 IR Inten    --     39.6613                 8.7347                 7.9813

                     73                     74                     75
                      A                      A                      A
 Frequencies --   1273.8725              1284.7259              1296.4125
 Red. masses --      1.5462                 1.8350                 1.7815
 Frc consts  --      1.4783                 1.7845                 1.7641
 IR Inten    --      2.5840                41.8338                44.6476

                     76                     77                     78
                      A                      A                      A
 Frequencies --   1311.6520              1316.9251              1329.7131
 Red. masses --      1.5011                 1.4167                 2.2101
 Frc consts  --      1.5216                 1.4476                 2.3023
 IR Inten    --     15.4708                 1.7659                12.1797

                     79                     80                     81
                      A                      A                      A
 Frequencies --   1333.8271              1351.2466              1354.8791
 Red. masses --      1.9479                 1.9093                 2.4774
 Frc consts  --      2.0418                 2.0539                 2.6795
 IR Inten    --      5.7432                23.2148                14.3495

                     82                     83                     84
                      A                      A                      A
 Frequencies --   1366.4778              1388.5804              1398.8326
 Red. masses --      1.5686                 1.8534                 1.8731
 Frc consts  --      1.7257                 2.1056                 2.1594
 IR Inten    --      2.2480                 5.3561                 7.2093

                     85                     86                     87
                      A                      A                      A
 Frequencies --   1409.6310              1431.5257              1436.1354
 Red. masses --      1.3503                 1.2770                 1.5573
 Frc consts  --      1.5809                 1.5419                 1.8924
 IR Inten    --      1.1657                 9.2461                 9.4002

                     88                     89                     90
                      A                      A                      A
 Frequencies --   1452.3161              1465.2125              1469.0164
 Red. masses --      1.1104                 1.5046                 1.1375
 Frc consts  --      1.3799                 1.9031                 1.4463
 IR Inten    --     17.7031                 0.7383                 5.2695

                     91                     92                     93
                      A                      A                      A
 Frequencies --   1477.4567              1485.8853              1492.7751
 Red. masses --      1.0774                 1.1146                 1.1100
 Frc consts  --      1.3857                 1.4499                 1.4574
 IR Inten    --     13.0867                 6.5396                 4.1161

                     94                     95                     96
                      A                      A                      A
 Frequencies --   1502.2001              1517.5445              1524.9928
 Red. masses --      1.7032                 2.9480                 1.0881
 Frc consts  --      2.2645                 4.0000                 1.4910
 IR Inten    --     42.6994                25.3419                 1.9809

                     97                     98                     99
                      A                      A                      A
 Frequencies --   1610.9043              1660.7921              1675.4583
 Red. masses --      1.0890                 7.9299                 7.0064
 Frc consts  --      1.6650                12.8868                11.5880
 IR Inten    --     74.5378                23.0397                 2.7963

                    100                    101                    102
                      A                      A                      A
 Frequencies --   1759.1870              2995.5543              3003.4013
 Red. masses --      7.0173                 1.0818                 1.0820
 Frc consts  --     12.7950                 5.7197                 5.7505
 IR Inten    --     40.7873                90.4809                27.3882

                    103                    104                    105
                      A                      A                      A
 Frequencies --   3052.9848              3071.0575              3071.1722
 Red. masses --      1.0630                 1.0608                 1.0488
 Frc consts  --      5.8375                 5.8949                 5.8282
 IR Inten    --     62.3863                54.1131                 6.1759

                    106                    107                    108
                      A                      A                      A
 Frequencies --   3074.7428              3082.3004              3084.3887
 Red. masses --      1.0530                 1.0615                 1.0626
 Frc consts  --      5.8652                 5.9416                 5.9558
 IR Inten    --     64.6375               102.0427                 9.2736

                    109                    110                    111
                      A                      A                      A
 Frequencies --   3113.6035              3120.3110              3121.0259
 Red. masses --      1.1002                 1.1010                 1.1039
 Frc consts  --      6.2843                 6.3159                 6.3356
 IR Inten    --     51.4534                67.8633                91.3340

                    112                    113                    114
                      A                      A                      A
 Frequencies --   3133.7835              3143.0692              3149.2540
 Red. masses --      1.1017                 1.1021                 1.1042
 Frc consts  --      6.3747                 6.4146                 6.4525
 IR Inten    --     12.1759                19.2034                37.0650

                    115                    116                    117
                      A                      A                      A
 Frequencies --   3157.5027              3169.9914              3203.7713
 Red. masses --      1.1024                 1.0605                 1.0878
 Frc consts  --      6.4758                 6.2790                 6.5786
 IR Inten    --     27.1393                 6.3616                 5.2073

                    118                    119                    120
                      A                      A                      A
 Frequencies --   3210.7323              3228.1760              3256.9719
 Red. masses --      1.0914                 1.0973                 1.1171
 Frc consts  --      6.6289                 6.7372                 6.9820
 IR Inten    --     18.1838                26.1644                11.9258

                    121                    122                    123
                      A                      A                      A
 Frequencies --   3510.6717              3596.6589              3830.7000
 Red. masses --      1.0523                 1.0920                 1.0669
 Frc consts  --      7.6415                 8.3226                 9.2239
 IR Inten    --      3.4134                14.4025               121.8078

 - Thermochemistry -
 -------------------
 Temperature   298.150 Kelvin.  Pressure   1.00000 Atm.
 Atom     1 has atomic number  8 and mass  15.99491

 Molecular mass:   269.17796 amu.
 Principal axes and moments of inertia in atomic units:
                           1         2         3
     Eigenvalues --  2937.276616578.461058272.62249
           X            0.99976   0.02166   0.00224
           Y           -0.02165   0.99976  -0.00161
           Z           -0.00228   0.00156   1.00000
 This molecule is an asymmetric top.
 Rotational symmetry number  1.
 Warning -- assumption of classical behavior for rotation
           may cause significant error
 Rotational temperatures (Kelvin)      0.02949     0.01317     0.01047
 Rotational constants (GHZ):           0.61443     0.27434     0.21816
 Zero-point vibrational energy     992530.6 (Joules/Mol)
                                  237.22052 (Kcal/Mol)
 Warning -- explicit consideration of  30 degrees of freedom as
           vibrations may cause significant error
 Vibrational temperatures:     75.22   106.59   139.48   210.06   213.78
          (Kelvin)            275.76   291.56   309.58   345.54   350.51
                              377.55   380.30   396.35   403.71   428.71
                              435.46   483.09   504.34   559.13   605.97
                              610.51   677.44   696.55   723.82   750.13
                              758.94   788.52   822.96   860.86   873.42
                              912.01   949.41  1023.81  1052.65  1083.82
                             1092.10  1139.09  1162.42  1222.22  1262.53
                             1268.02  1276.36  1308.84  1331.39  1337.80
                             1351.86  1388.38  1407.16  1419.44  1437.03
                             1449.21  1457.84  1497.44  1510.57  1521.19
                             1552.22  1580.96  1590.91  1609.17  1626.78
                             1648.02  1654.91  1679.38  1689.13  1700.78
                             1722.57  1736.81  1755.06  1784.44  1788.22
                             1803.70  1831.28  1832.82  1848.43  1865.25
                             1887.17  1894.76  1913.16  1919.08  1944.14
                             1949.37  1966.06  1997.86  2012.61  2028.14
                             2059.65  2066.28  2089.56  2108.11  2113.59
                             2125.73  2137.86  2147.77  2161.33  2183.41
                             2194.12  2317.73  2389.51  2410.61  2531.08
                             4309.93  4321.22  4392.56  4418.57  4418.73
                             4423.87  4434.74  4437.75  4479.78  4489.43
                             4490.46  4508.82  4522.18  4531.07  4542.94
                             4560.91  4609.51  4619.53  4644.63  4686.06
                             5051.07  5174.79  5511.52

 Zero-point correction=                           0.378035 (Hartree/Particle)
 Thermal correction to Energy=                    0.395385
 Thermal correction to Enthalpy=                  0.396329
 Thermal correction to Gibbs Free Energy=         0.335169
 Sum of electronic and zero-point Energies=           -829.060054
 Sum of electronic and thermal Energies=              -829.042704
 Sum of electronic and thermal Enthalpies=            -829.041760
 Sum of electronic and thermal Free Energies=         -829.102920

                     E (Thermal)             CV                S
                      KCal/Mol        Cal/Mol-Kelvin    Cal/Mol-Kelvin
 Total                  248.108             73.104            128.723
 Electronic               0.000              0.000              0.000
 Translational            0.889              2.981             42.670
 Rotational               0.889              2.981             33.435
 Vibrational            246.330             67.142             52.618
 Vibration     1          0.596              1.977              4.729
 Vibration     2          0.599              1.966              4.042
 Vibration     3          0.603              1.951              3.515
 Vibration     4          0.617              1.907              2.724
 Vibration     5          0.618              1.904              2.690
 Vibration     6          0.634              1.851              2.212
 Vibration     7          0.639              1.836              2.109
 Vibration     8          0.645              1.818              1.999
 Vibration     9          0.657              1.779              1.802
 Vibration    10          0.659              1.773              1.776
 Vibration    11          0.670              1.742              1.646
 Vibration    12          0.671              1.738              1.633
 Vibration    13          0.677              1.719              1.562
 Vibration    14          0.680              1.710              1.530
 Vibration    15          0.691              1.678              1.428
 Vibration    16          0.694              1.669              1.402
 Vibration    17          0.717              1.604              1.232
 Vibration    18          0.727              1.574              1.164
 Vibration    19          0.757              1.495              1.005
 Vibration    20          0.784              1.424              0.888
 Vibration    21          0.786              1.417              0.877
 Vibration    22          0.828              1.315              0.735
 Vibration    23          0.840              1.285              0.699
 Vibration    24          0.858              1.243              0.650
 Vibration    25          0.876              1.203              0.607
 Vibration    26          0.882              1.189              0.593
 Vibration    27          0.903              1.144              0.548
 Vibration    28          0.928              1.092              0.500
 Vibration    29          0.956              1.035              0.453
 Vibration    30          0.966              1.017              0.438

                           ! Non-Optimized Parameters !
 Normal termination of Gaussian 16 at Fri Jul 28 00:37:24 2023.
