 Gaussian 16, Revision A.03,
 Gaussian 16:  ES64L-G16RevA.03 25-Dec-2016

 -------------------------------------------------------
 #P M062X/6-31+G(d,p) Opt Freq SCRF=(SMD, Solvent=Water)
 -------------------------------------------------------

 ---------------
 2-3_charged_pka
 ---------------
 Symbolic Z-matrix:
 Charge =  1 Multiplicity = 1

 SCF Done:  E(RM062X) =  -829.581012639     A.U. after   15 cycles
 SCF Done:  E(RM062X) =  -829.694839464     A.U. after   13 cycles
 SCF Done:  E(RM062X) =  -829.801468735     A.U. after   14 cycles
 SCF Done:  E(RM062X) =  -829.817942649     A.U. after   14 cycles
 SCF Done:  E(RM062X) =  -829.839171206     A.U. after   14 cycles
 SCF Done:  E(RM062X) =  -829.858233345     A.U. after   14 cycles
 SCF Done:  E(RM062X) =  -829.871449153     A.U. after   14 cycles
 SCF Done:  E(RM062X) =  -829.883868546     A.U. after   13 cycles
 SCF Done:  E(RM062X) =  -829.894298926     A.U. after   13 cycles
 SCF Done:  E(RM062X) =  -829.896761644     A.U. after   13 cycles
 SCF Done:  E(RM062X) =  -829.902597830     A.U. after    9 cycles
 SCF Done:  E(RM062X) =  -829.902638083     A.U. after   11 cycles
 SCF Done:  E(RM062X) =  -829.902639998     A.U. after    9 cycles
 SCF Done:  E(RM062X) =  -829.902641034     A.U. after    9 cycles
 SCF Done:  E(RM062X) =  -829.902641605     A.U. after    8 cycles
 SCF Done:  E(RM062X) =  -829.902642443     A.U. after    9 cycles
 SCF Done:  E(RM062X) =  -829.902643126     A.U. after    9 cycles
 SCF Done:  E(RM062X) =  -829.902643540     A.U. after    8 cycles
 SCF Done:  E(RM062X) =  -829.902643662     A.U. after    8 cycles
 Optimization completed.
    -- Stationary point found.
 Normal termination of Gaussian 16 at Mon Aug  7 16:08:39 2023.

 ----------------------------------------------------------------------
 #P Geom=AllCheck Guess=TCheck SCRF=Check GenChk RM062X/6-31+G(d,p) Fre
 q
 ----------------------------------------------------------------------

 Structure from the checkpoint file:  "/home/ch/tchem07/g16/2-3_charged_pka.chk"
 ---------------
 2-3_charged_pka
 ---------------
 Charge =  1 Multiplicity = 1

                         Standard orientation:
 ---------------------------------------------------------------------
 Center     Atomic      Atomic             Coordinates (Angstroms)
 Number     Number       Type             X           Y           Z
 ---------------------------------------------------------------------
      1          6           0        3.360219   -0.060071    2.192172
      2          6           0        2.518396   -0.147209    1.164378
      3          6           0        1.010151   -0.317689    1.219693
      4          6           0        0.577575   -0.382352   -0.271235
      5          6           0        1.814046   -0.983451   -0.940379
      6          6           0        2.917534   -0.118701   -0.299422
      7          8           0        4.228345   -0.632983   -0.476187
      8          6           0        2.830764    1.333121   -0.818394
      9          6           0        1.485517    1.996434   -0.478858
     10          6           0        0.351393    1.040187   -0.829663
     11          6           0       -1.048221    1.334026   -0.360101
     12          6           0       -1.642706    2.568402   -0.136507
     13          6           0       -2.979596    2.598072    0.268912
     14          6           0       -3.689377    1.409274    0.419008
     15          6           0       -3.102127    0.152827    0.188332
     16          6           0       -3.960321   -1.080791    0.312157
     17          6           0       -1.752016    0.128302   -0.181344
     18          6           0       -0.805863   -1.038814   -0.495755
     19          6           0       -0.947742   -2.355933    0.264749
     20          7           0       -1.748810   -3.367295   -0.494574
     21          1           0        3.003310   -0.090765    3.218626
     22          1           0        4.430920    0.038976    2.033905
     23          1           0        0.515248    0.490075    1.769219
     24          1           0        0.775535   -1.253866    1.737817
     25          1           0        1.792946   -0.901203   -2.032365
     26          1           0        1.966425   -2.032900   -0.656468
     27          1           0        4.477023   -0.508624   -1.403704
     28          1           0        2.974934    1.309912   -1.907283
     29          1           0        3.657274    1.901318   -0.378180
     30          1           0        1.383071    2.937468   -1.028024
     31          1           0        1.450536    2.244347    0.589090
     32          1           0        0.320601    0.939040   -1.927670
     33          1           0       -1.079898    3.488326   -0.271535
     34          1           0       -3.471159    3.546695    0.463317
     35          1           0       -4.732558    1.445071    0.722296
     36          1           0       -4.073538   -1.571955   -0.661869
     37          1           0       -3.561979   -1.802757    1.031055
     38          1           0       -4.963714   -0.811165    0.649487
     39          1           0       -0.878713   -1.260003   -1.573877
     40          1           0       -1.407701   -2.241861    1.246649
     41          1           0        0.031995   -2.818874    0.395522
     42          1           0       -1.753125   -4.266986   -0.004002
     43          1           0       -2.723527   -3.080392   -0.622597
     44          1           0       -1.344757   -3.518749   -1.424346
 ---------------------------------------------------------------------

 SCF Done:  E(RM062X) =  -829.902643662     A.U. after    2 cycles

 The electronic state is 1-A.
 Alpha  occ. eigenvalues --  -19.65295 -14.87003 -10.60626 -10.60528 -10.57022
 Alpha  occ. eigenvalues --  -10.56520 -10.56182 -10.55835 -10.55671 -10.55409
 Alpha  occ. eigenvalues --  -10.55142 -10.54894 -10.54842 -10.54819 -10.54438
 Alpha  occ. eigenvalues --  -10.54236 -10.54202 -10.54113 -10.53879 -10.53462
 Alpha  occ. eigenvalues --   -1.15460  -1.10282  -1.00006  -0.95965  -0.90894
 Alpha  occ. eigenvalues --   -0.89078  -0.86623  -0.84397  -0.83206  -0.80680
 Alpha  occ. eigenvalues --   -0.78156  -0.76625  -0.74307  -0.71130  -0.68803
 Alpha  occ. eigenvalues --   -0.66657  -0.65021  -0.64400  -0.63869  -0.61226
 Alpha  occ. eigenvalues --   -0.60945  -0.57836  -0.56664  -0.56375  -0.54232
 Alpha  occ. eigenvalues --   -0.53451  -0.52360  -0.51120  -0.50712  -0.49656
 Alpha  occ. eigenvalues --   -0.49333  -0.48843  -0.48019  -0.47168  -0.46532
 Alpha  occ. eigenvalues --   -0.45569  -0.45197  -0.44994  -0.43719  -0.43668
 Alpha  occ. eigenvalues --   -0.42375  -0.41645  -0.40242  -0.40043  -0.38791
 Alpha  occ. eigenvalues --   -0.37704  -0.37486  -0.36589  -0.35644  -0.33726
 Alpha  occ. eigenvalues --   -0.30385  -0.29595  -0.28988
 Alpha virt. eigenvalues --    0.01048   0.01794   0.01961   0.02307   0.02624
 Alpha virt. eigenvalues --    0.02643   0.02884   0.03721   0.04004   0.04107
 Alpha virt. eigenvalues --    0.04603   0.05663   0.05820   0.06082   0.06300

 Mulliken charges:
               1
     1  C   -0.358974
     2  C    0.539807
     3  C   -0.508554
     4  C   -0.761593
     5  C    0.149173
     6  C   -0.689048
     7  O   -0.564446
     8  C   -0.210276
     9  C   -0.481143
    10  C    0.112241
    11  C   -0.419739
    12  C    0.089170
    13  C   -0.293200
    14  C   -0.392402
    15  C    0.435915
    16  C   -0.594275
    17  C    0.212500
    18  C   -0.102013
    19  C   -0.224861
    20  N   -0.685819
    21  H    0.173930
    22  H    0.176801
    23  H    0.224748
    24  H    0.206362
    25  H    0.200007
    26  H    0.194592
    27  H    0.426255
    28  H    0.187767
    29  H    0.187485
    30  H    0.179805
    31  H    0.192788
    32  H    0.210947
    33  H    0.187595
    34  H    0.190378
    35  H    0.180957
    36  H    0.195627
    37  H    0.190398
    38  H    0.190902
    39  H    0.210736
    40  H    0.249279
    41  H    0.241273
    42  H    0.455658
    43  H    0.434054
    44  H    0.459194
 Sum of Mulliken charges =   1.00000

 Dipole moment (field-independent basis, Debye):
    X=             -9.4590    Y=            -14.6597    Z=             -4.6091  Tot=             18.0451
 Quadrupole moment (field-independent basis, Debye-Ang):
   XX=           -106.5602   YY=            -61.2143   ZZ=           -111.5428
   XY=             33.3966   XZ=             -8.1471   YZ=              7.1748

  Exact polarizability: 334.053  -1.379 309.857  -7.138   3.516 262.551
 Approx polarizability: 266.276   0.294 256.877  -7.003   3.082 220.491

                      1                      2                      3
                      A                      A                      A
 Frequencies --     58.4479                76.3378               104.7983
 Red. masses --      4.0299                 3.3750                 3.3762
 Frc consts  --      0.0081                 0.0116                 0.0218
 IR Inten    --      6.2941                 0.5622                 7.3244

                      4                      5                      6
                      A                      A                      A
 Frequencies --    122.4487               156.6349               172.9702
 Red. masses --      3.1459                 3.2100                 2.7815
 Frc consts  --      0.0278                 0.0464                 0.0490
 IR Inten    --     22.3406                10.5323                 7.1898

                      7                      8                      9
                      A                      A                      A
 Frequencies --    201.4178               220.9864               236.3899
 Red. masses --      1.3597                 2.0701                 3.0636
 Frc consts  --      0.0325                 0.0596                 0.1009
 IR Inten    --      0.2718                 1.6787                11.0943

                     10                     11                     12
                      A                      A                      A
 Frequencies --    255.8348               265.3251               274.9032
 Red. masses --      1.8760                 1.3350                 2.2533
 Frc consts  --      0.0723                 0.0554                 0.1003
 IR Inten    --     53.8351               148.7824                22.4929

                     13                     14                     15
                      A                      A                      A
 Frequencies --    281.0438               296.9133               310.5726
 Red. masses --      3.0941                 2.8650                 2.2712
 Frc consts  --      0.1440                 0.1488                 0.1291
 IR Inten    --      7.3265                 7.7374                 3.0582

                     16                     17                     18
                      A                      A                      A
 Frequencies --    314.3623               338.7723               355.2349
 Red. masses --      2.6121                 3.4874                 2.2531
 Frc consts  --      0.1521                 0.2358                 0.1675
 IR Inten    --     10.6335                25.7625                 8.7955

                     19                     20                     21
                      A                      A                      A
 Frequencies --    394.6983               424.4769               430.7387
 Red. masses --      2.1874                 2.2425                 3.4213
 Frc consts  --      0.2008                 0.2381                 0.3740
 IR Inten    --      5.3692                 2.6510                 6.0923

                     22                     23                     24
                      A                      A                      A
 Frequencies --    468.3756               485.8495               497.4404
 Red. masses --      3.3843                 2.8766                 3.8628
 Frc consts  --      0.4374                 0.4001                 0.5632
 IR Inten    --      4.4479                 3.8307                 3.8303

                     25                     26                     27
                      A                      A                      A
 Frequencies --    518.5938               527.8383               548.2474
 Red. masses --      2.8367                 3.2890                 2.8210
 Frc consts  --      0.4495                 0.5399                 0.4996
 IR Inten    --      5.5577                 2.4659                12.8516

                     28                     29                     30
                      A                      A                      A
 Frequencies --    574.7918               597.2664               608.5923
 Red. masses --      3.1992                 4.2722                 2.5935
 Frc consts  --      0.6228                 0.8979                 0.5660
 IR Inten    --     11.3769                 3.0648                 2.7374

                     31                     32                     33
                      A                      A                      A
 Frequencies --    641.9684               672.9424               709.4871
 Red. masses --      3.8239                 3.6328                 2.5360
 Frc consts  --      0.9285                 0.9693                 0.7521
 IR Inten    --      0.9524                 2.8619                 0.9967

                     34                     35                     36
                      A                      A                      A
 Frequencies --    735.6625               749.3755               773.2202
 Red. masses --      1.3842                 2.6038                 2.8761
 Frc consts  --      0.4414                 0.8615                 1.0131
 IR Inten    --      3.2671                32.4779                11.6581

                     37                     38                     39
                      A                      A                      A
 Frequencies --    780.9361               803.3816               820.5771
 Red. masses --      1.7988                 1.9814                 2.3181
 Frc consts  --      0.6463                 0.7535                 0.9196
 IR Inten    --     32.2812                31.6433                16.3190

                     40                     41                     42
                      A                      A                      A
 Frequencies --    876.5990               884.2190               899.4153
 Red. masses --      2.2046                 1.9569                 1.6062
 Frc consts  --      0.9981                 0.9014                 0.7656
 IR Inten    --     24.8689                 0.9539                31.7394

                     43                     44                     45
                      A                      A                      A
 Frequencies --    912.7802               927.0053               931.3827
 Red. masses --      1.6628                 1.5119                 1.5016
 Frc consts  --      0.8162                 0.7655                 0.7675
 IR Inten    --     30.2419                12.1345                 6.5702

                     46                     47                     48
                      A                      A                      A
 Frequencies --    942.6783               959.2499               971.0186
 Red. masses --      1.6660                 2.0860                 2.1212
 Frc consts  --      0.8723                 1.1309                 1.1784
 IR Inten    --     47.2091                20.1351                 5.8344

                     49                     50                     51
                      A                      A                      A
 Frequencies --    989.8443               991.2509              1006.8362
 Red. masses --      1.8431                 1.6930                 1.3369
 Frc consts  --      1.0640                 0.9801                 0.7985
 IR Inten    --     25.1731                12.9916                 0.7485

                     52                     53                     54
                      A                      A                      A
 Frequencies --   1011.2645              1042.1493              1047.6177
 Red. masses --      1.8555                 2.2701                 2.6130
 Frc consts  --      1.1180                 1.4526                 1.6896
 IR Inten    --      0.4962                 3.8483                10.2564

                     55                     56                     57
                      A                      A                      A
 Frequencies --   1068.0121              1082.3743              1086.2772
 Red. masses --      1.5076                 1.7604                 1.5957
 Frc consts  --      1.0132                 1.2151                 1.1094
 IR Inten    --     10.2129                 6.3903                19.0310

                     58                     59                     60
                      A                      A                      A
 Frequencies --   1105.6704              1112.2143              1120.8792
 Red. masses --      1.6797                 1.5827                 2.3140
 Frc consts  --      1.2098                 1.1535                 1.7129
 IR Inten    --     29.9180                45.9505                 0.8687

                     61                     62                     63
                      A                      A                      A
 Frequencies --   1146.2071              1150.8991              1155.8669
 Red. masses --      1.6566                 1.8923                 1.5466
 Frc consts  --      1.2823                 1.4768                 1.2174
 IR Inten    --     34.9831                13.5372                 8.5791

                     64                     65                     66
                      A                      A                      A
 Frequencies --   1173.9570              1180.2083              1198.2810
 Red. masses --      1.5598                 1.6772                 2.0093
 Frc consts  --      1.2666                 1.3764                 1.6999
 IR Inten    --     54.3478                29.4709                10.1284

                     67                     68                     69
                      A                      A                      A
 Frequencies --   1208.1119              1216.4223              1239.6752
 Red. masses --      2.1242                 1.9345                 1.5728
 Frc consts  --      1.8267                 1.6865                 1.4241
 IR Inten    --     10.3707                 3.2253                 7.3041

                     70                     71                     72
                      A                      A                      A
 Frequencies --   1246.5431              1258.3604              1272.1746
 Red. masses --      1.7473                 1.5487                 2.3709
 Frc consts  --      1.5997                 1.4449                 2.2607
 IR Inten    --     51.4639                11.8163                 6.1767

                     73                     74                     75
                      A                      A                      A
 Frequencies --   1283.4874              1292.5846              1300.8224
 Red. masses --      1.5539                 1.6985                 1.8942
 Frc consts  --      1.5082                 1.6720                 1.8885
 IR Inten    --      7.1010                25.2753                76.0861

                     76                     77                     78
                      A                      A                      A
 Frequencies --   1313.8237              1334.5909              1337.1443
 Red. masses --      1.6537                 1.9230                 2.2774
 Frc consts  --      1.6818                 2.0180                 2.3990
 IR Inten    --      3.0455                 6.4839                30.6902

                     79                     80                     81
                      A                      A                      A
 Frequencies --   1347.7965              1353.7604              1356.8921
 Red. masses --      1.6248                 1.7472                 2.5453
 Frc consts  --      1.7390                 1.8866                 2.7611
 IR Inten    --      3.2110                27.7386                 7.4734

                     82                     83                     84
                      A                      A                      A
 Frequencies --   1390.9757              1392.8990              1399.2082
 Red. masses --      1.8421                 1.3994                 1.6668
 Frc consts  --      2.1000                 1.5997                 1.9226
 IR Inten    --      2.7505                17.9030                11.2196

                     85                     86                     87
                      A                      A                      A
 Frequencies --   1412.8795              1434.7919              1442.8681
 Red. masses --      1.3478                 1.3076                 1.4106
 Frc consts  --      1.5852                 1.5860                 1.7302
 IR Inten    --      3.7809                11.5049                14.1428

                     88                     89                     90
                      A                      A                      A
 Frequencies --   1459.7967              1467.9427              1470.7503
 Red. masses --      1.1079                 1.2215                 1.2805
 Frc consts  --      1.3911                 1.5509                 1.6320
 IR Inten    --     13.7031                26.7153                46.2238

                     91                     92                     93
                      A                      A                      A
 Frequencies --   1482.6825              1484.8485              1488.3371
 Red. masses --      1.1460                 1.1728                 1.6111
 Frc consts  --      1.4843                 1.5235                 2.1026
 IR Inten    --      8.0822                29.4424                98.5232

                     94                     95                     96
                      A                      A                      A
 Frequencies --   1494.9228              1508.8319              1520.2634
 Red. masses --      1.1456                 1.0751                 2.9927
 Frc consts  --      1.5084                 1.4420                 4.0752
 IR Inten    --     24.8189                38.3799                15.3703

                     97                     98                     99
                      A                      A                      A
 Frequencies --   1536.6426              1606.3316              1623.2201
 Red. masses --      1.1356                 1.0423                 1.0393
 Frc consts  --      1.5799                 1.5846                 1.6133
 IR Inten    --     71.6680                65.8958                76.3215

                    100                    101                    102
                      A                      A                      A
 Frequencies --   1663.9529              1677.7313              1761.4134
 Red. masses --      7.8086                 6.9219                 7.0170
 Frc consts  --     12.7381                11.4794                12.8269
 IR Inten    --     19.9263                 3.0237                36.7563

                    103                    104                    105
                      A                      A                      A
 Frequencies --   3007.8158              3019.1315              3054.7787
 Red. masses --      1.0820                 1.0828                 1.0632
 Frc consts  --      5.7673                 5.8154                 5.8454
 IR Inten    --     61.2401                20.2622                58.3872

                    106                    107                    108
                      A                      A                      A
 Frequencies --   3061.7076              3064.9122              3074.5957
 Red. masses --      1.0424                 1.0611                 1.0633
 Frc consts  --      5.7574                 5.8729                 5.9220
 IR Inten    --     39.3948                67.9955                36.2624

                    109                    110                    111
                      A                      A                      A
 Frequencies --   3085.2375              3117.2150              3124.8079
 Red. masses --      1.0606                 1.1003                 1.1039
 Frc consts  --      5.9481                 6.2991                 6.3506
 IR Inten    --     22.1664                47.2119                64.5980

                    112                    113                    114
                      A                      A                      A
 Frequencies --   3127.7017              3128.9892              3132.8250
 Red. masses --      1.1036                 1.1036                 1.0800
 Frc consts  --      6.3606                 6.3660                 6.2454
 IR Inten    --     21.5862                52.8995                 7.7855

                    115                    116                    117
                      A                      A                      A
 Frequencies --   3137.9619              3161.1281              3171.7773
 Red. masses --      1.0817                 1.1010                 1.0606
 Frc consts  --      6.2753                 6.4822                 6.2866
 IR Inten    --     24.4982                23.4829                 5.8050

                    118                    119                    120
                      A                      A                      A
 Frequencies --   3196.8616              3207.9617              3213.8385
 Red. masses --      1.1076                 1.0876                 1.0920
 Frc consts  --      6.6690                 6.5943                 6.6451
 IR Inten    --      2.4851                 2.1897                17.2508

                    121                    122                    123
                      A                      A                      A
 Frequencies --   3230.7460              3259.4755              3443.3833
 Red. masses --      1.0974                 1.1172                 1.0320
 Frc consts  --      6.7487                 6.9934                 7.2093
 IR Inten    --     22.6087                10.6336                73.8092

                    124                    125                    126
                      A                      A                      A
 Frequencies --   3531.3168              3533.6545              3832.4660
 Red. masses --      1.0941                 1.0933                 1.0668
 Frc consts  --      8.0385                 8.0431                 9.2321
 IR Inten    --    221.1824               265.7978               128.1274

 - Thermochemistry -
 -------------------
 Temperature   298.150 Kelvin.  Pressure   1.00000 Atm.
 Atom     1 has atomic number  6 and mass  12.00000

 Molecular mass:   270.18579 amu.
 Principal axes and moments of inertia in atomic units:
                           1         2         3
     Eigenvalues --  3082.393616690.395298438.98150
           X            0.99960   0.02803  -0.00275
           Y           -0.02803   0.99961   0.00195
           Z            0.00280  -0.00187   0.99999
 This molecule is an asymmetric top.
 Rotational symmetry number  1.
 Warning -- assumption of classical behavior for rotation
           may cause significant error
 Rotational temperatures (Kelvin)      0.02810     0.01295     0.01026
 Rotational constants (GHZ):           0.58550     0.26975     0.21386
 Zero-point vibrational energy    1033488.5 (Joules/Mol)
                                  247.00968 (Kcal/Mol)
 Warning -- explicit consideration of  30 degrees of freedom as
           vibrations may cause significant error
 Vibrational temperatures:     84.09   109.83   150.78   176.18   225.36
          (Kelvin)            248.87   289.80   317.95   340.11   368.09
                              381.74   395.52   404.36   427.19   446.84
                              452.30   487.42   511.10   567.88   610.73
                              619.74   673.89   699.03   715.71   746.14
                              759.44   788.81   827.00   859.33   875.63
                              923.65   968.21  1020.79  1058.45  1078.18
                             1112.49  1123.59  1155.89  1180.63  1261.23
                             1272.19  1294.06  1313.29  1333.75  1340.05
                             1356.30  1380.15  1397.08  1424.17  1426.19
                             1448.61  1454.98  1499.42  1507.29  1536.63
                             1557.30  1562.91  1590.81  1600.23  1612.70
                             1649.14  1655.89  1663.03  1689.06  1698.06
                             1724.06  1738.20  1750.16  1783.62  1793.50
                             1810.50  1830.38  1846.65  1859.74  1871.59
                             1890.30  1920.18  1923.85  1939.18  1947.76
                             1952.27  2001.30  2004.07  2013.15  2032.82
                             2064.35  2075.97  2100.32  2112.04  2116.08
                             2133.25  2136.37  2141.39  2150.86  2170.87
                             2187.32  2210.89  2311.15  2335.45  2394.06
                             2413.88  2534.28  4327.58  4343.86  4395.15
                             4405.11  4409.73  4423.66  4438.97  4484.98
                             4495.90  4500.07  4501.92  4507.44  4514.83
                             4548.16  4563.48  4599.57  4615.54  4624.00
                             4648.32  4689.66  4954.26  5080.78  5084.14
                             5514.06

 Zero-point correction=                           0.393635 (Hartree/Particle)
 Thermal correction to Energy=                    0.410899
 Thermal correction to Enthalpy=                  0.411843
 Thermal correction to Gibbs Free Energy=         0.350885
 Sum of electronic and zero-point Energies=           -829.509009
 Sum of electronic and thermal Energies=              -829.491745
 Sum of electronic and thermal Enthalpies=            -829.490801
 Sum of electronic and thermal Free Energies=         -829.551758

                     E (Thermal)             CV                S
                      KCal/Mol        Cal/Mol-Kelvin    Cal/Mol-Kelvin
 Total                  257.843             73.045            128.296
 Electronic               0.000              0.000              0.000
 Translational            0.889              2.981             42.681
 Rotational               0.889              2.981             33.520
 Vibrational            256.065             67.084             52.095
 Vibration     1          0.596              1.974              4.509
 Vibration     2          0.599              1.965              3.983
 Vibration     3          0.605              1.945              3.363
 Vibration     4          0.610              1.930              3.061
 Vibration     5          0.620              1.895              2.590
 Vibration     6          0.626              1.876              2.403
 Vibration     7          0.638              1.838              2.120
 Vibration     8          0.648              1.809              1.951
 Vibration     9          0.655              1.785              1.830
 Vibration    10          0.666              1.753              1.690
 Vibration    11          0.671              1.737              1.626
 Vibration    12          0.677              1.720              1.565
 Vibration    13          0.681              1.709              1.527
 Vibration    14          0.691              1.679              1.434
 Vibration    15          0.699              1.654              1.359
 Vibration    16          0.702              1.646              1.339
 Vibration    17          0.719              1.598              1.218
 Vibration    18          0.731              1.565              1.143
 Vibration    19          0.762              1.482              0.982
 Vibration    20          0.786              1.417              0.877
 Vibration    21          0.792              1.403              0.856
 Vibration    22          0.826              1.320              0.742
 Vibration    23          0.842              1.281              0.694
 Vibration    24          0.853              1.256              0.665
 Vibration    25          0.874              1.209              0.613
 Vibration    26          0.883              1.188              0.592
 Vibration    27          0.903              1.144              0.548
 Vibration    28          0.931              1.086              0.495
 Vibration    29          0.955              1.038              0.454
 Vibration    30          0.967              1.014              0.435

 Optimization completed.
    -- Stationary point found.
 Normal termination of Gaussian 16 at Tue Aug  8 04:15:37 2023.
