 Gaussian 16, Revision A.03,
 Gaussian 16:  ES64L-G16RevA.03 25-Dec-2016

 -------------------------------------------------------
 #P M062X/6-31+G(d,p) Opt Freq SCRF=(SMD, Solvent=Water)
 -------------------------------------------------------

 ----------------
 2-46_neutral_pka
 ----------------
 Symbolic Z-matrix:
 Charge =  0 Multiplicity = 1

 SCF Done:  E(RM062X) =  -998.479108893     A.U. after   16 cycles
 SCF Done:  E(RM062X) =  -998.524729532     A.U. after   15 cycles
 SCF Done:  E(RM062X) =  -998.544308981     A.U. after   15 cycles
 SCF Done:  E(RM062X) =  -998.555242645     A.U. after   15 cycles
 SCF Done:  E(RM062X) =  -998.554070682     A.U. after   15 cycles
 SCF Done:  E(RM062X) =  -998.557871275     A.U. after   15 cycles
 SCF Done:  E(RM062X) =  -998.559686898     A.U. after   15 cycles
 SCF Done:  E(RM062X) =  -998.559861322     A.U. after   14 cycles
 SCF Done:  E(RM062X) =  -998.560234053     A.U. after   13 cycles
 SCF Done:  E(RM062X) =  -998.560233578     A.U. after   13 cycles
 SCF Done:  E(RM062X) =  -998.560255782     A.U. after   12 cycles
 SCF Done:  E(RM062X) =  -998.560266133     A.U. after   11 cycles
 SCF Done:  E(RM062X) =  -998.560269111     A.U. after   10 cycles
 SCF Done:  E(RM062X) =  -998.560270647     A.U. after   10 cycles
 SCF Done:  E(RM062X) =  -998.560270942     A.U. after    9 cycles
 SCF Done:  E(RM062X) =  -998.560271295     A.U. after    9 cycles
 SCF Done:  E(RM062X) =  -998.560271446     A.U. after    9 cycles
 SCF Done:  E(RM062X) =  -998.560271574     A.U. after    8 cycles
 SCF Done:  E(RM062X) =  -998.560271680     A.U. after    8 cycles
 Optimization completed.
    -- Stationary point found.
 Normal termination of Gaussian 16 at Sun Jul 30 07:13:37 2023.

 ----------------------------------------------------------------------
 #P Geom=AllCheck Guess=TCheck SCRF=Check GenChk RM062X/6-31+G(d,p) Fre
 q
 ----------------------------------------------------------------------

 Structure from the checkpoint file:  "/home/ch/tchem07/g16/2-46_neutral_pka.chk"
 ----------------
 2-46_neutral_pka
 ----------------
 Charge =  0 Multiplicity = 1

                         Standard orientation:
 ---------------------------------------------------------------------
 Center     Atomic      Atomic             Coordinates (Angstroms)
 Number     Number       Type             X           Y           Z
 ---------------------------------------------------------------------
      1          8           0        1.247903    2.088189    1.510870
      2          6           0        0.958240    2.132770    0.330228
      3          8           0        0.505821    3.249049   -0.255945
      4          6           0        0.997191    0.961640   -0.618558
      5          6           0        2.014572   -0.093321   -0.256791
      6          6           0        3.373043    0.093148    0.024167
      7          6           0        4.003215    1.461133    0.043851
      8          6           0        4.134320   -1.051813    0.290986
      9          6           0        3.564923   -2.327240    0.268438
     10          6           0        2.213748   -2.496592   -0.037794
     11          6           0        1.444984   -1.365783   -0.306811
     12          6           0       -0.013220   -1.313797   -0.688190
     13          6           0       -0.375955    0.210457   -0.613683
     14          6           0       -1.311715    0.639483   -1.752336
     15          6           0       -2.683136    0.228823   -1.264989
     16          6           0       -2.577300   -0.245786    0.177950
     17          6           0       -2.380452   -1.795179    0.126788
     18          6           0       -0.902858   -2.189390    0.206899
     19          6           0       -3.814986    0.142238    0.966695
     20          8           0       -3.595270   -0.189147    2.334412
     21          6           0       -1.275500    0.445884    0.622660
     22          8           0       -3.714659    0.272484   -1.914246
     23          1           0        0.441207    3.957365    0.409907
     24          1           0        1.190321    1.355893   -1.623762
     25          1           0        5.074532    1.392857   -0.160071
     26          1           0        3.553605    2.121603   -0.705088
     27          1           0        3.877527    1.939313    1.021074
     28          1           0        5.192514   -0.939761    0.513773
     29          1           0        4.184260   -3.193656    0.481168
     30          1           0        1.774100   -3.489855   -0.071548
     31          1           0       -0.126361   -1.646116   -1.729873
     32          1           0       -1.076306    0.207903   -2.729259
     33          1           0       -1.322557    1.733888   -1.852333
     34          1           0       -2.837315   -2.191937   -0.787474
     35          1           0       -2.922171   -2.237543    0.968280
     36          1           0       -0.560237   -2.094700    1.243005
     37          1           0       -0.780980   -3.241634   -0.067470
     38          1           0       -4.685448   -0.399242    0.576083
     39          1           0       -3.998717    1.219669    0.862586
     40          1           0       -4.417937   -0.042089    2.819211
     41          1           0       -1.466987    1.517774    0.764435
     42          1           0       -0.858094    0.045617    1.549559
 ---------------------------------------------------------------------

 SCF Done:  E(RM062X) =  -998.560271680     A.U. after    1 cycles

 The electronic state is 1-A.
 Alpha  occ. eigenvalues --  -19.70022 -19.65651 -19.65350 -19.65187 -10.70209
 Alpha  occ. eigenvalues --  -10.65046 -10.59339 -10.57508 -10.57125 -10.56325
 Alpha  occ. eigenvalues --  -10.56317 -10.55658 -10.55510 -10.55363 -10.55205
 Alpha  occ. eigenvalues --  -10.55025 -10.54910 -10.54802 -10.54709 -10.54698
 Alpha  occ. eigenvalues --  -10.54033 -10.53704  -1.24612  -1.18159  -1.15030
 Alpha  occ. eigenvalues --   -1.14849  -0.99998  -0.96402  -0.91050  -0.89080
 Alpha  occ. eigenvalues --   -0.86768  -0.84369  -0.81973  -0.79240  -0.77462
 Alpha  occ. eigenvalues --   -0.76564  -0.72473  -0.70947  -0.68784  -0.65452
 Alpha  occ. eigenvalues --   -0.65279  -0.62433  -0.60240  -0.59184  -0.58578
 Alpha  occ. eigenvalues --   -0.58150  -0.56872  -0.56342  -0.55651  -0.53979
 Alpha  occ. eigenvalues --   -0.53304  -0.52332  -0.51657  -0.50373  -0.50209
 Alpha  occ. eigenvalues --   -0.49803  -0.48495  -0.47590  -0.47098  -0.46843
 Alpha  occ. eigenvalues --   -0.46215  -0.45181  -0.44406  -0.44128  -0.43218
 Alpha  occ. eigenvalues --   -0.42893  -0.41619  -0.40875  -0.40392  -0.40114
 Alpha  occ. eigenvalues --   -0.39177  -0.38720  -0.37513  -0.37157  -0.36812
 Alpha  occ. eigenvalues --   -0.35847  -0.34807  -0.31980  -0.29540  -0.29161
 Alpha virt. eigenvalues --    0.00581   0.01194   0.01879   0.02234   0.02399
 Alpha virt. eigenvalues --    0.02821   0.02902   0.03325   0.03912   0.04022
 Alpha virt. eigenvalues --    0.04353   0.05002   0.05635   0.05766   0.06229

 Mulliken charges:
               1
     1  O   -0.483763
     2  C   -0.090964
     3  O   -0.382223
     4  C   -0.240270
     5  C    0.273664
     6  C    0.149153
     7  C   -0.412453
     8  C   -0.356590
     9  C   -0.164443
    10  C    0.044387
    11  C    0.036963
    12  C   -0.132252
    13  C   -0.119559
    14  C   -0.131264
    15  C    0.067485
    16  C   -0.199922
    17  C   -0.342162
    18  C   -0.310779
    19  C   -0.044402
    20  O   -0.652257
    21  C   -0.536811
    22  O   -0.486781
    23  H    0.448512
    24  H    0.240238
    25  H    0.184903
    26  H    0.191996
    27  H    0.205685
    28  H    0.182802
    29  H    0.189107
    30  H    0.186727
    31  H    0.215079
    32  H    0.229429
    33  H    0.238707
    34  H    0.197012
    35  H    0.193636
    36  H    0.187896
    37  H    0.184353
    38  H    0.179900
    39  H    0.171611
    40  H    0.451739
    41  H    0.206575
    42  H    0.229338
 Sum of Mulliken charges =  -0.00000

 Dipole moment (field-independent basis, Debye):
    X=              0.6185    Y=              0.8636    Z=             -0.9001  Tot=              1.3923
 Quadrupole moment (field-independent basis, Debye-Ang):
   XX=           -127.6963   YY=           -112.2592   ZZ=           -141.9196
   XY=             -0.2004   XZ=            -18.8111   YZ=              0.3411

  Exact polarizability: 328.977  -1.245 316.849  24.223  -8.772 255.602
 Approx polarizability: 264.911   0.361 263.096  20.156  -7.169 219.515

                      1                      2                      3
                      A                      A                      A
 Frequencies --     29.2629                56.6360                65.2772
 Red. masses --      6.3500                 6.6968                 4.7301
 Frc consts  --      0.0032                 0.0127                 0.0119
 IR Inten    --      2.4745                 4.3669                 1.0557

                      4                      5                      6
                      A                      A                      A
 Frequencies --     85.5291                97.5010               132.0483
 Red. masses --      6.4891                 5.2067                 3.6492
 Frc consts  --      0.0280                 0.0292                 0.0375
 IR Inten    --      0.5192                10.5618                 3.2082

                      7                      8                      9
                      A                      A                      A
 Frequencies --    142.9165               147.0505               171.1726
 Red. masses --      4.4097                 3.2748                 1.6646
 Frc consts  --      0.0531                 0.0417                 0.0287
 IR Inten    --      3.1913                16.3012                14.9194

                     10                     11                     12
                      A                      A                      A
 Frequencies --    178.2715               210.3936               223.2141
 Red. masses --      2.0329                 3.0213                 3.0583
 Frc consts  --      0.0381                 0.0788                 0.0898
 IR Inten    --      8.6102                 0.0506                13.1781

                     13                     14                     15
                      A                      A                      A
 Frequencies --    247.9163               259.7753               280.3067
 Red. masses --      3.0969                 1.2078                 3.1126
 Frc consts  --      0.1121                 0.0480                 0.1441
 IR Inten    --      9.1119               168.4316                14.1465

                     16                     17                     18
                      A                      A                      A
 Frequencies --    298.9332               307.1700               316.9762
 Red. masses --      2.8979                 3.8232                 3.6018
 Frc consts  --      0.1526                 0.2125                 0.2132
 IR Inten    --     38.3881                 7.4520                 1.7389

                     19                     20                     21
                      A                      A                      A
 Frequencies --    353.3197               368.2075               400.6534
 Red. masses --      4.4503                 5.8308                 3.1067
 Frc consts  --      0.3273                 0.4658                 0.2938
 IR Inten    --      3.1309                 9.4654                 7.8250

                     22                     23                     24
                      A                      A                      A
 Frequencies --    439.8079               453.9713               478.2211
 Red. masses --      4.0851                 2.3417                 3.1713
 Frc consts  --      0.4656                 0.2843                 0.4273
 IR Inten    --      8.0727                 1.7091                 1.0346

                     25                     26                     27
                      A                      A                      A
 Frequencies --    505.3282               514.4817               532.6423
 Red. masses --      3.0388                 3.2680                 2.0234
 Frc consts  --      0.4572                 0.5096                 0.3382
 IR Inten    --      6.5395                 8.3373                59.4767

                     28                     29                     30
                      A                      A                      A
 Frequencies --    545.1085               569.3236               588.3263
 Red. masses --      3.0422                 2.7274                 2.4546
 Frc consts  --      0.5326                 0.5209                 0.5006
 IR Inten    --      4.1867                33.0679                85.1232

                     31                     32                     33
                      A                      A                      A
 Frequencies --    589.9258               621.8427               636.3385
 Red. masses --      3.6686                 2.7470                 4.6631
 Frc consts  --      0.7522                 0.6258                 1.1125
 IR Inten    --     16.3998                13.4807                46.5568

                     34                     35                     36
                      A                      A                      A
 Frequencies --    654.6598               677.1643               740.2075
 Red. masses --      3.4159                 4.4133                 3.1582
 Frc consts  --      0.8626                 1.1923                 1.0195
 IR Inten    --     49.3919                54.8279                17.2449

                     37                     38                     39
                      A                      A                      A
 Frequencies --    751.3391               758.0623               793.4787
 Red. masses --      3.2623                 3.7187                 1.7700
 Frc consts  --      1.0850                 1.2591                 0.6566
 IR Inten    --     33.7343                 0.6740                46.5672

                     40                     41                     42
                      A                      A                      A
 Frequencies --    811.3718               825.4150               833.9279
 Red. masses --      1.9893                 2.5725                 3.4851
 Frc consts  --      0.7716                 1.0327                 1.4280
 IR Inten    --     24.3627                 7.9114                21.0313

                     43                     44                     45
                      A                      A                      A
 Frequencies --    882.9281               897.6587               901.9204
 Red. masses --      3.1762                 2.2414                 3.4414
 Frc consts  --      1.4589                 1.0641                 1.6494
 IR Inten    --     20.2915                 2.6441                 5.4272

                     46                     47                     48
                      A                      A                      A
 Frequencies --    932.0765               955.4335               967.9831
 Red. masses --      1.3582                 1.9923                 2.4216
 Frc consts  --      0.6952                 1.0716                 1.3369
 IR Inten    --      0.3729                 8.9610                 9.2655

                     49                     50                     51
                      A                      A                      A
 Frequencies --    974.3362               981.6794               999.3063
 Red. masses --      2.3337                 2.5511                 1.9712
 Frc consts  --      1.3053                 1.4485                 1.1598
 IR Inten    --      9.0152                10.2840                 9.5015

                     52                     53                     54
                      A                      A                      A
 Frequencies --   1012.3750              1035.8357              1043.5985
 Red. masses --      1.3224                 2.2136                 2.0913
 Frc consts  --      0.7985                 1.3994                 1.3419
 IR Inten    --      0.4315                 1.0724                28.3460

                     55                     56                     57
                      A                      A                      A
 Frequencies --   1055.3355              1056.7431              1085.8550
 Red. masses --      1.7838                 1.6164                 2.6479
 Frc consts  --      1.1705                 1.0635                 1.8394
 IR Inten    --      1.6266                 8.2781                78.9952

                     58                     59                     60
                      A                      A                      A
 Frequencies --   1099.4530              1110.7940              1116.0142
 Red. masses --      1.8854                 2.2708                 1.8811
 Frc consts  --      1.3428                 1.6508                 1.3804
 IR Inten    --     11.0711                 9.4505                34.3905

                     61                     62                     63
                      A                      A                      A
 Frequencies --   1124.5624              1147.9586              1160.6163
 Red. masses --      1.8114                 3.0791                 2.3258
 Frc consts  --      1.3497                 2.3907                 1.8458
 IR Inten    --     23.7925                42.8714               650.8720

                     64                     65                     66
                      A                      A                      A
 Frequencies --   1167.4623              1174.5307              1182.8638
 Red. masses --      1.9605                 1.3403                 1.6311
 Frc consts  --      1.5744                 1.0893                 1.3446
 IR Inten    --      5.3697                 8.7059                43.6668

                     67                     68                     69
                      A                      A                      A
 Frequencies --   1206.9726              1210.5779              1226.8586
 Red. masses --      1.7424                 1.8006                 1.4440
 Frc consts  --      1.4955                 1.5548                 1.2805
 IR Inten    --      2.7408                 9.7042                12.3755

                     70                     71                     72
                      A                      A                      A
 Frequencies --   1236.7023              1246.1293              1263.0317
 Red. masses --      1.5565                 1.4434                 1.4635
 Frc consts  --      1.4026                 1.3206                 1.3755
 IR Inten    --      9.0195                10.7063                34.8779

                     73                     74                     75
                      A                      A                      A
 Frequencies --   1277.7290              1288.0042              1294.9645
 Red. masses --      1.8079                 1.6331                 1.6706
 Frc consts  --      1.7390                 1.5962                 1.6506
 IR Inten    --      2.7891                 3.7116                 5.9886

                     76                     77                     78
                      A                      A                      A
 Frequencies --   1303.1080              1306.6203              1314.8454
 Red. masses --      1.6008                 1.6051                 1.9532
 Frc consts  --      1.6015                 1.6145                 1.9895
 IR Inten    --     20.0681                 5.7852                 8.0725

                     79                     80                     81
                      A                      A                      A
 Frequencies --   1321.9989              1337.7109              1340.1925
 Red. masses --      1.9202                 1.8436                 2.3507
 Frc consts  --      1.9772                 1.9438                 2.4876
 IR Inten    --     46.7477                 1.7808                21.7536

                     82                     83                     84
                      A                      A                      A
 Frequencies --   1357.7572              1374.6077              1383.0209
 Red. masses --      2.2847                 1.7673                 1.7064
 Frc consts  --      2.4815                 1.9675                 1.9230
 IR Inten    --      8.0177                 6.9834                19.7656

                     85                     86                     87
                      A                      A                      A
 Frequencies --   1406.5031              1409.2618              1421.2486
 Red. masses --      1.3042                 2.6329                 1.1020
 Frc consts  --      1.5202                 3.0808                 1.3115
 IR Inten    --      0.2776               138.6773                20.6974

                     88                     89                     90
                      A                      A                      A
 Frequencies --   1456.0460              1464.1526              1476.6986
 Red. masses --      1.5720                 1.1873                 1.0971
 Frc consts  --      1.9636                 1.4996                 1.4096
 IR Inten    --     18.1403                 4.0934                 6.0622

                     91                     92                     93
                      A                      A                      A
 Frequencies --   1481.1816              1482.6964              1508.0434
 Red. masses --      1.0941                 1.0686                 1.0967
 Frc consts  --      1.4143                 1.3840                 1.4695
 IR Inten    --     11.3023                14.1252                 6.0174

                     94                     95                     96
                      A                      A                      A
 Frequencies --   1510.2551              1511.0621              1521.8194
 Red. masses --      2.6969                 1.0839                 3.2161
 Frc consts  --      3.6242                 1.4581                 4.3884
 IR Inten    --     46.8845                 8.4870                25.2487

                     97                     98                     99
                      A                      A                      A
 Frequencies --   1670.2905              1676.5539              1780.0244
 Red. masses --      7.5508                 7.6925                10.4869
 Frc consts  --     12.4115                12.7395                19.5772
 IR Inten    --     20.1331                18.2028               776.9579

                    100                    101                    102
                      A                      A                      A
 Frequencies --   1802.3271              3049.1737              3049.9912
 Red. masses --     12.4620                 1.0826                 1.0582
 Frc consts  --     23.8510                 5.9306                 5.7996
 IR Inten    --    618.3272                34.7795                77.7308

                    103                    104                    105
                      A                      A                      A
 Frequencies --   3066.5651              3068.4046              3070.3788
 Red. masses --      1.0661                 1.0378                 1.0667
 Frc consts  --      5.9070                 5.7569                 5.9249
 IR Inten    --     12.0754                26.9734                57.0308

                    106                    107                    108
                      A                      A                      A
 Frequencies --   3074.9037              3081.0206              3087.3958
 Red. masses --      1.0639                 1.0647                 1.0840
 Frc consts  --      5.9269                 5.9548                 6.0878
 IR Inten    --     41.9339                30.5151                 7.3766

                    109                    110                    111
                      A                      A                      A
 Frequencies --   3099.2790              3124.0626              3132.3025
 Red. masses --      1.1075                 1.1000                 1.1044
 Frc consts  --      6.2680                 6.3255                 6.3842
 IR Inten    --     61.0323                30.9013                45.6751

                    112                    113                    114
                      A                      A                      A
 Frequencies --   3135.4420              3145.3817              3155.4343
 Red. masses --      1.1018                 1.0985                 1.0985
 Frc consts  --      6.3820                 6.4033                 6.4443
 IR Inten    --     16.6661                 6.6795                27.2488

                    115                    116                    117
                      A                      A                      A
 Frequencies --   3158.5187              3207.0711              3213.4947
 Red. masses --      1.1022                 1.0878                 1.0918
 Frc consts  --      6.4784                 6.5920                 6.6430
 IR Inten    --     25.0565                 2.4316                16.0648

                    118                    119                    120
                      A                      A                      A
 Frequencies --   3229.4005              3754.0585              3865.3441
 Red. masses --      1.0973                 1.0656                 1.0671
 Frc consts  --      6.7423                 8.8482                 9.3939
 IR Inten    --     22.3225               240.1046               153.0927

 - Thermochemistry -
 -------------------
 Temperature   298.150 Kelvin.  Pressure   1.00000 Atm.
 Atom     1 has atomic number  8 and mass  15.99491

 Molecular mass:   300.13616 amu.
 Principal axes and moments of inertia in atomic units:
                           1         2         3
     Eigenvalues --  3677.687118049.692949511.44403
           X            0.99993   0.00811  -0.00810
           Y           -0.00819   0.99992  -0.00971
           Z            0.00802   0.00977   0.99992
 This molecule is an asymmetric top.
 Rotational symmetry number  1.
 Warning -- assumption of classical behavior for rotation
           may cause significant error
 Rotational temperatures (Kelvin)      0.02355     0.01076     0.00911
 Rotational constants (GHZ):           0.49073     0.22420     0.18974
 Zero-point vibrational energy     923501.6 (Joules/Mol)
                                  220.72219 (Kcal/Mol)
 Warning -- explicit consideration of  31 degrees of freedom as
           vibrations may cause significant error
 Vibrational temperatures:     42.10    81.49    93.92   123.06   140.28
          (Kelvin)            189.99   205.63   211.57   246.28   256.49
                              302.71   321.16   356.70   373.76   403.30
                              430.10   441.95   456.06   508.35   529.77
                              576.45   632.79   653.16   688.05   727.05
                              740.22   766.35   784.29   819.13   846.47
                              848.77   894.69   915.55   941.91   974.29
                             1064.99  1081.01  1090.68  1141.64  1167.38
                             1187.59  1199.84  1270.34  1291.53  1297.66
                             1341.05  1374.66  1392.71  1401.85  1412.42
                             1437.78  1456.58  1490.34  1501.51  1518.39
                             1520.42  1562.30  1581.87  1598.18  1605.70
                             1617.99  1651.66  1669.87  1679.72  1689.89
                             1701.88  1736.56  1741.75  1765.18  1779.34
                             1792.90  1817.22  1838.37  1853.15  1863.17
                             1874.88  1879.94  1891.77  1902.06  1924.67
                             1928.24  1953.51  1977.75  1989.86  2023.64
                             2027.61  2044.86  2094.93  2106.59  2124.64
                             2131.09  2133.27  2169.74  2172.92  2174.08
                             2189.56  2403.18  2412.19  2561.06  2593.15
                             4387.08  4388.26  4412.10  4414.75  4417.59
                             4424.10  4432.90  4442.07  4459.17  4494.83
                             4506.68  4511.20  4525.50  4539.97  4544.40
                             4614.26  4623.50  4646.39  5401.25  5561.37

 Zero-point correction=                           0.351743 (Hartree/Particle)
 Thermal correction to Energy=                    0.370792
 Thermal correction to Enthalpy=                  0.371736
 Thermal correction to Gibbs Free Energy=         0.305070
 Sum of electronic and zero-point Energies=           -998.208528
 Sum of electronic and thermal Energies=              -998.189480
 Sum of electronic and thermal Enthalpies=            -998.188536
 Sum of electronic and thermal Free Energies=         -998.255202

                     E (Thermal)             CV                S
                      KCal/Mol        Cal/Mol-Kelvin    Cal/Mol-Kelvin
 Total                  232.675             76.246            140.310
 Electronic               0.000              0.000              0.000
 Translational            0.889              2.981             42.994
 Rotational               0.889              2.981             33.998
 Vibrational            230.898             70.284             63.318
 Vibration     1          0.593              1.984              5.879
 Vibration     2          0.596              1.975              4.571
 Vibration     3          0.597              1.971              4.291
 Vibration     4          0.601              1.959              3.760
 Vibration     5          0.603              1.951              3.504
 Vibration     6          0.612              1.921              2.916
 Vibration     7          0.616              1.910              2.764
 Vibration     8          0.617              1.906              2.710
 Vibration     9          0.626              1.878              2.423
 Vibration    10          0.629              1.869              2.346
 Vibration    11          0.643              1.825              2.040
 Vibration    12          0.649              1.806              1.933
 Vibration    13          0.662              1.766              1.745
 Vibration    14          0.668              1.746              1.663
 Vibration    15          0.680              1.710              1.532
 Vibration    16          0.692              1.676              1.423
 Vibration    17          0.697              1.660              1.378
 Vibration    18          0.704              1.641              1.326
 Vibration    19          0.730              1.568              1.151
 Vibration    20          0.741              1.538              1.087
 Vibration    21          0.766              1.469              0.960
 Vibration    22          0.800              1.383              0.827
 Vibration    23          0.812              1.352              0.784
 Vibration    24          0.835              1.298              0.715
 Vibration    25          0.861              1.238              0.645
 Vibration    26          0.870              1.218              0.623
 Vibration    27          0.888              1.178              0.581
 Vibration    28          0.900              1.150              0.554
 Vibration    29          0.925              1.098              0.506
 Vibration    30          0.946              1.057              0.470
 Vibration    31          0.947              1.053              0.467

                           ! Non-Optimized Parameters !
 Normal termination of Gaussian 16 at Sun Jul 30 20:50:56 2023.
