 Gaussian 16, Revision C.01,
 Gaussian 16:  ES64L-G16RevC.01  3-Jul-2019

 -------------------------------------------------------
 #P M062X/6-31+G(d,p) Opt Freq SCRF=(SMD, Solvent=Water)
 -------------------------------------------------------

 -------------------
 Title Card Required
 -------------------
 Symbolic Z-matrix:
 Charge =  0 Multiplicity = 1

 SCF Done:  E(RM062X) =  -56.5352475070     A.U. after    9 cycles
 SCF Done:  E(RM062X) =  -56.5360149354     A.U. after    8 cycles
 SCF Done:  E(RM062X) =  -56.5361269366     A.U. after    8 cycles
 SCF Done:  E(RM062X) =  -56.5361278323     A.U. after    7 cycles
 Optimization completed.
    -- Stationary point found.
 Normal termination of Gaussian 16 at Fri Sep  1 15:13:52 2023.

 ----------------------------------------------------------------------
 #P Geom=AllCheck Guess=TCheck SCRF=Check GenChk RM062X/6-31+G(d,p) Fre
 q
 ----------------------------------------------------------------------

 Structure from the checkpoint file:  "NH3.chk"
 -------------------
 Title Card Required
 -------------------
 Charge =  0 Multiplicity = 1

                         Standard orientation:
 ---------------------------------------------------------------------
 Center     Atomic      Atomic             Coordinates (Angstroms)
 Number     Number       Type             X           Y           Z
 ---------------------------------------------------------------------
      1          7           0        0.000000   -0.000000    0.115038
      2          1           0        0.000000    0.941391   -0.268422
      3          1           0       -0.815269   -0.470696   -0.268422
      4          1           0        0.815269   -0.470696   -0.268422
 ---------------------------------------------------------------------

 SCF Done:  E(RM062X) =  -56.5361278323     A.U. after    1 cycles

 The electronic state is 1-A1.
 Alpha  occ. eigenvalues --  -14.73683  -0.94825  -0.52187  -0.52186  -0.33874
 Alpha virt. eigenvalues --    0.06030   0.11265   0.11267   0.13523   0.26017
 Alpha virt. eigenvalues --    0.26017   0.31072   0.88758   0.88758   0.94661
 Alpha virt. eigenvalues --    0.99036   0.99036   1.14720   1.18796   1.47570

 Mulliken charges:
               1
     1  N   -1.020282
     2  H    0.340094
     3  H    0.340094
     4  H    0.340094
 Sum of Mulliken charges =  -0.00000

 Dipole moment (field-independent basis, Debye):
    X=             -0.0000    Y=             -0.0000    Z=             -2.3281  Tot=              2.3281
 Quadrupole moment (field-independent basis, Debye-Ang):
   XX=             -6.2042   YY=             -6.2042   ZZ=             -9.7728
   XY=             -0.0000   XZ=              0.0000   YZ=              0.0000

  Exact polarizability:      12.199       0.000      12.203      -0.000       0.000      13.283
 Approx polarizability:      10.249      -0.000      10.249       0.000      -0.000       9.983

                      1                      2                      3
                     A1                      E                      E
 Frequencies --   1071.5705              1625.1892              1625.7405
 Red. masses --      1.1786                 1.0652                 1.0651
 Frc consts  --      0.7974                 1.6576                 1.6586
 IR Inten    --    321.5545                46.1507                46.0914

                      4                      5                      6
                     A1                      E                      E
 Frequencies --   3507.6824              3637.1550              3637.6523
 Red. masses --      1.0283                 1.0903                 1.0904
 Frc consts  --      7.4543                 8.4977                 8.5010
 IR Inten    --      0.7593                29.5235                29.6591

 - Thermochemistry -
 -------------------
 Temperature   298.150 Kelvin.  Pressure   1.00000 Atm.
 Atom     1 has atomic number  7 and mass  14.00307

 Molecular mass:    17.02655 amu.
 Principal axes and moments of inertia in atomic units:
                           1         2         3
     Eigenvalues --     6.08994   6.08994   9.56851
           X           -0.28592   0.95825  -0.00000
           Y            0.95825   0.28592  -0.00000
           Z            0.00000   0.00000   1.00000
 This molecule is an oblate symmetric top.
 Rotational symmetry number  3.
 Rotational temperatures (Kelvin)     14.22245    14.22245     9.05198
 Rotational constants (GHZ):         296.34773   296.34773   188.61255
 Zero-point vibrational energy      90347.9 (Joules/Mol)
                                   21.59367 (Kcal/Mol)
 Vibrational temperatures:   1541.75  2338.28  2339.08  5046.77  5233.05
          (Kelvin)           5233.77

 Zero-point correction=                           0.034412 (Hartree/Particle)
 Thermal correction to Energy=                    0.037278
 Thermal correction to Enthalpy=                  0.038222
 Thermal correction to Gibbs Free Energy=         0.016376
 Sum of electronic and zero-point Energies=            -56.501716
 Sum of electronic and thermal Energies=               -56.498850
 Sum of electronic and thermal Enthalpies=             -56.497906
 Sum of electronic and thermal Free Energies=          -56.519752

                     E (Thermal)             CV                S
                      KCal/Mol        Cal/Mol-Kelvin    Cal/Mol-Kelvin
 Total                   23.392              6.363             45.979
 Electronic               0.000              0.000              0.000
 Translational            0.889              2.981             34.441
 Rotational               0.889              2.981             11.454
 Vibrational             21.615              0.401              0.084

 Optimization completed.
    -- Stationary point found.
 Normal termination of Gaussian 16 at Fri Sep  1 15:14:01 2023.
