 Gaussian 16, Revision C.01,
 Gaussian 16:  ES64L-G16RevC.01  3-Jul-2019

 -------------------------------------------------------
 #P M062X/6-31+G(d,p) Opt Freq SCRF=(SMD, Solvent=Water)
 -------------------------------------------------------

 -------------------
 Title Card Required
 -------------------
 Symbolic Z-matrix:
 Charge =  1 Multiplicity = 1

 SCF Done:  E(RM062X) =  -56.9958902507     A.U. after    7 cycles
 SCF Done:  E(RM062X) =  -56.9976913002     A.U. after    6 cycles
 Optimization completed.
    -- Stationary point found.
 Normal termination of Gaussian 16 at Fri Sep  1 15:12:47 2023.

 ----------------------------------------------------------------------
 #P Geom=AllCheck Guess=TCheck SCRF=Check GenChk RM062X/6-31+G(d,p) Fre
 q
 ----------------------------------------------------------------------

 Structure from the checkpoint file:  "NH4+.chk"
 -------------------
 Title Card Required
 -------------------
 Charge =  1 Multiplicity = 1

                         Standard orientation:
 ---------------------------------------------------------------------
 Center     Atomic      Atomic             Coordinates (Angstroms)
 Number     Number       Type             X           Y           Z
 ---------------------------------------------------------------------
      1          7           0        0.000000    0.000000    0.000000
      2          1           0        0.590738    0.590738    0.590738
      3          1           0       -0.590738   -0.590738    0.590738
      4          1           0       -0.590738    0.590738   -0.590738
      5          1           0        0.590738   -0.590738   -0.590738
 ---------------------------------------------------------------------

 SCF Done:  E(RM062X) =  -56.9976913002     A.U. after    1 cycles

 The electronic state is 1-A1.
 Alpha  occ. eigenvalues --  -14.86719  -1.08901  -0.63034  -0.63034  -0.63034
 Alpha virt. eigenvalues --    0.03255   0.09759   0.09759   0.09759   0.20552
 Alpha virt. eigenvalues --    0.20552   0.20552   0.29910   0.80017   0.80017
 Alpha virt. eigenvalues --    0.80017   0.92021   0.92021   0.92021   1.13671

 Mulliken charges:
               1
     1  N   -0.783567
     2  H    0.445892
     3  H    0.445892
     4  H    0.445892
     5  H    0.445892
 Sum of Mulliken charges =   1.00000

 Dipole moment (field-independent basis, Debye):
    X=             -0.0000    Y=              0.0000    Z=             -0.0000  Tot=              0.0000
 Quadrupole moment (field-independent basis, Debye-Ang):
   XX=             -4.3759   YY=             -4.3759   ZZ=             -4.3759
   XY=             -0.0000   XZ=             -0.0000   YZ=             -0.0000

  Exact polarizability:       9.111      -0.000       9.111      -0.000      -0.000       9.111
 Approx polarizability:       8.201       0.000       8.201      -0.000       0.000       8.201

                      1                      2                      3
                     T2                     T2                     T2
 Frequencies --   1404.6698              1404.6698              1404.6698
 Red. masses --      1.1576                 1.1576                 1.1576
 Frc consts  --      1.3457                 1.3457                 1.3457
 IR Inten    --    249.1731               249.1731               249.1731

                      4                      5                      6
                      E                      E                     A1
 Frequencies --   1661.8739              1661.8739              3429.7870
 Red. masses --      1.0078                 1.0078                 1.0078
 Frc consts  --      1.6400                 1.6400                 6.9851
 IR Inten    --      0.0000                 0.0000                 0.0000

                      7                      8                      9
                     T2                     T2                     T2
 Frequencies --   3560.5803              3560.5803              3560.5803
 Red. masses --      1.0932                 1.0932                 1.0932
 Frc consts  --      8.1654                 8.1654                 8.1654
 IR Inten    --    272.7056               272.7056               272.7056

 - Thermochemistry -
 -------------------
 Temperature   298.150 Kelvin.  Pressure   1.00000 Atm.
 Atom     1 has atomic number  7 and mass  14.00307

 Molecular mass:    18.03437 amu.
 Principal axes and moments of inertia in atomic units:
                           1         2         3
     Eigenvalues --    10.04760  10.04760  10.04760
           X            0.95012   0.31188   0.00000
           Y           -0.31188   0.95012   0.00000
           Z            0.00000  -0.00000   1.00000
 This molecule is a spherical top.
 Rotational symmetry number 12.
 Rotational temperatures (Kelvin)      8.62036     8.62036     8.62036
 Rotational constants (GHZ):         179.61919   179.61919   179.61919
 Zero-point vibrational energy     129491.5 (Joules/Mol)
                                   30.94921 (Kcal/Mol)
 Vibrational temperatures:   2021.01  2021.01  2021.01  2391.07  2391.07
          (Kelvin)           4934.70  5122.88  5122.88  5122.88

 Zero-point correction=                           0.049321 (Hartree/Particle)
 Thermal correction to Energy=                    0.052180
 Thermal correction to Enthalpy=                  0.053124
 Thermal correction to Gibbs Free Energy=         0.032019
 Sum of electronic and zero-point Energies=            -56.948371
 Sum of electronic and thermal Energies=               -56.945511
 Sum of electronic and thermal Enthalpies=             -56.944567
 Sum of electronic and thermal Free Energies=          -56.965672

                     E (Thermal)             CV                S
                      KCal/Mol        Cal/Mol-Kelvin    Cal/Mol-Kelvin
 Total                   32.744              6.358             44.419
 Electronic               0.000              0.000              0.000
 Translational            0.889              2.981             34.612
 Rotational               0.889              2.981              9.743
 Vibrational             30.966              0.397              0.065

 Optimization completed.
    -- Stationary point found.
 Normal termination of Gaussian 16 at Fri Sep  1 15:12:58 2023.
